 Entering Gaussian System, Link 0=g16
 Input=c1.gjf
 Output=c1.log
 Initial command:
 /curc/sw/gaussian/16/g16/l1.exe "/gpfs/alpine1/scratch/beri9208/salts/Na_B_MetO/Gau-41807.inp" -scrdir="/gpfs/alpine1/scratch/beri9208/salts/Na_B_MetO/"
 Entering Link 1 = /curc/sw/gaussian/16/g16/l1.exe PID=     41808.
  
 Copyright (c) 1988,1990,1992,1993,1995,1998,2003,2009,2016,
            Gaussian, Inc.  All Rights Reserved.
  
 This is part of the Gaussian(R) 16 program.  It is based on
 the Gaussian(R) 09 system (copyright 2009, Gaussian, Inc.),
 the Gaussian(R) 03 system (copyright 2003, Gaussian, Inc.),
 the Gaussian(R) 98 system (copyright 1998, Gaussian, Inc.),
 the Gaussian(R) 94 system (copyright 1995, Gaussian, Inc.),
 the Gaussian 92(TM) system (copyright 1992, Gaussian, Inc.),
 the Gaussian 90(TM) system (copyright 1990, Gaussian, Inc.),
 the Gaussian 88(TM) system (copyright 1988, Gaussian, Inc.),
 the Gaussian 86(TM) system (copyright 1986, Carnegie Mellon
 University), and the Gaussian 82(TM) system (copyright 1983,
 Carnegie Mellon University). Gaussian is a federally registered
 trademark of Gaussian, Inc.
  
 This software contains proprietary and confidential information,
 including trade secrets, belonging to Gaussian, Inc.
  
 This software is provided under written license and may be
 used, copied, transmitted, or stored only in accord with that
 written license.
  
 The following legend is applicable only to US Government
 contracts under FAR:
  
                    RESTRICTED RIGHTS LEGEND
  
 Use, reproduction and disclosure by the US Government is
 subject to restrictions as set forth in subparagraphs (a)
 and (c) of the Commercial Computer Software - Restricted
 Rights clause in FAR 52.227-19.
  
 Gaussian, Inc.
 340 Quinnipiac St., Bldg. 40, Wallingford CT 06492
  
  
 ---------------------------------------------------------------
 Warning -- This program may not be used in any manner that
 competes with the business of Gaussian, Inc. or will provide
 assistance to any competitor of Gaussian, Inc.  The licensee
 of this program is prohibited from giving any competitor of
 Gaussian, Inc. access to this program.  By using this program,
 the user acknowledges that Gaussian, Inc. is engaged in the
 business of creating and licensing software in the field of
 computational chemistry and represents and warrants to the
 licensee that it is not a competitor of Gaussian, Inc. and that
 it will not use this program in any manner prohibited above.
 ---------------------------------------------------------------
  

 Cite this work as:
 Gaussian 16, Revision A.03,
 M. J. Frisch, G. W. Trucks, H. B. Schlegel, G. E. Scuseria, 
 M. A. Robb, J. R. Cheeseman, G. Scalmani, V. Barone, 
 G. A. Petersson, H. Nakatsuji, X. Li, M. Caricato, A. V. Marenich, 
 J. Bloino, B. G. Janesko, R. Gomperts, B. Mennucci, H. P. Hratchian, 
 J. V. Ortiz, A. F. Izmaylov, J. L. Sonnenberg, D. Williams-Young, 
 F. Ding, F. Lipparini, F. Egidi, J. Goings, B. Peng, A. Petrone, 
 T. Henderson, D. Ranasinghe, V. G. Zakrzewski, J. Gao, N. Rega, 
 G. Zheng, W. Liang, M. Hada, M. Ehara, K. Toyota, R. Fukuda, 
 J. Hasegawa, M. Ishida, T. Nakajima, Y. Honda, O. Kitao, H. Nakai, 
 T. Vreven, K. Throssell, J. A. Montgomery, Jr., J. E. Peralta, 
 F. Ogliaro, M. J. Bearpark, J. J. Heyd, E. N. Brothers, K. N. Kudin, 
 V. N. Staroverov, T. A. Keith, R. Kobayashi, J. Normand, 
 K. Raghavachari, A. P. Rendell, J. C. Burant, S. S. Iyengar, 
 J. Tomasi, M. Cossi, J. M. Millam, M. Klene, C. Adamo, R. Cammi, 
 J. W. Ochterski, R. L. Martin, K. Morokuma, O. Farkas, 
 J. B. Foresman, and D. J. Fox, Gaussian, Inc., Wallingford CT, 2016.
 
 ******************************************
 Gaussian 16:  ES64L-G16RevA.03 25-Dec-2016
                16-Feb-2023 
 ******************************************
 %chk=c1.chk
 %mem=2GB
 %NProcShared=16
 Will use up to   16 processors via shared memory.
 ------------------------------------------
 # opt wb97xd Gen scrf=(cpcm,solvent=water)
 ------------------------------------------
 1/18=20,19=15,26=3,38=1/1,3;
 2/9=110,12=2,17=6,18=5,40=1/2;
 3/5=7,11=2,25=1,30=1,70=2101,71=1,72=1,74=-58/1,2,3;
 4//1;
 5/5=2,38=5,53=1/2;
 6/7=2,8=2,9=2,10=2,28=1/1;
 7//1,2,3,16;
 1/18=20,19=15,26=3/3(2);
 2/9=110/2;
 99//99;
 2/9=110/2;
 3/5=7,6=1,11=2,25=1,30=1,70=2105,71=1,72=1,74=-58,82=7/1,2,3;
 4/5=5,16=3,69=1/1;
 5/5=2,38=5,53=1/2;
 7//1,2,3,16;
 1/18=20,19=15,26=3/3(-5);
 2/9=110/2;
 6/7=2,8=2,9=2,10=2,19=2,28=1/1;
 99/9=1/99;
 -------------------
 Title Card Required
 -------------------
 Symbolic Z-matrix:
 Charge =  0 Multiplicity = 1
 B                     2.01877   1.99785   1.85458 
 O                     2.10405   2.6622    3.17948 
 O                     2.52037   2.96459   0.85494 
 O                     2.97393   0.86165   1.85963 
 O                     0.60273   1.60219   1.65696 
 C                     1.85006   1.86901   4.33091 
 C                     1.7712    4.15387   0.65682 
 C                     3.52398   0.37515   0.6392 
 C                     0.30075   0.7708    0.54683 
 H                     1.81546   2.52901   5.21283 
 H                     2.64077   1.11414   4.49425 
 H                     0.88461   1.3339    4.26142 
 H                     1.69124   4.75475   1.58264 
 H                     2.28051   4.76891  -0.10438 
 H                     0.74488   3.94418   0.30105 
 H                     4.57698   0.69146   0.51914 
 H                     3.5064   -0.72871   0.63521 
 H                     2.9747    0.73314  -0.24835 
 H                    -0.79337   0.62383   0.4926 
 H                     0.63106   1.21547  -0.41227 
 H                     0.76995  -0.22761   0.63835 
 Na                    4.44134   2.97884   2.57393 
 

 GradGradGradGradGradGradGradGradGradGradGradGradGradGradGradGradGradGrad
 Berny optimization.
 Initialization pass.
                           ----------------------------
                           !    Initial Parameters    !
                           ! (Angstroms and Degrees)  !
 --------------------------                            --------------------------
 ! Name  Definition              Value          Derivative Info.                !
 --------------------------------------------------------------------------------
 ! R1    R(1,2)                  1.4846         estimate D2E/DX2                !
 ! R2    R(1,3)                  1.4783         estimate D2E/DX2                !
 ! R3    R(1,4)                  1.4844         estimate D2E/DX2                !
 ! R4    R(1,5)                  1.4835         estimate D2E/DX2                !
 ! R5    R(1,22)                 2.7108         estimate D2E/DX2                !
 ! R6    R(2,6)                  1.4211         estimate D2E/DX2                !
 ! R7    R(3,7)                  1.4195         estimate D2E/DX2                !
 ! R8    R(4,8)                  1.4243         estimate D2E/DX2                !
 ! R9    R(5,9)                  1.4194         estimate D2E/DX2                !
 ! R10   R(6,10)                 1.1021         estimate D2E/DX2                !
 ! R11   R(6,11)                 1.1053         estimate D2E/DX2                !
 ! R12   R(6,12)                 1.106          estimate D2E/DX2                !
 ! R13   R(7,13)                 1.1066         estimate D2E/DX2                !
 ! R14   R(7,14)                 1.1032         estimate D2E/DX2                !
 ! R15   R(7,15)                 1.1063         estimate D2E/DX2                !
 ! R16   R(8,16)                 1.106          estimate D2E/DX2                !
 ! R17   R(8,17)                 1.104          estimate D2E/DX2                !
 ! R18   R(8,18)                 1.1035         estimate D2E/DX2                !
 ! R19   R(9,19)                 1.1053         estimate D2E/DX2                !
 ! R20   R(9,20)                 1.1076         estimate D2E/DX2                !
 ! R21   R(9,21)                 1.107          estimate D2E/DX2                !
 ! A1    A(2,1,3)              106.9376         estimate D2E/DX2                !
 ! A2    A(2,1,4)              107.6104         estimate D2E/DX2                !
 ! A3    A(2,1,5)              107.0414         estimate D2E/DX2                !
 ! A4    A(2,1,22)              63.2504         estimate D2E/DX2                !
 ! A5    A(3,1,4)              106.5303         estimate D2E/DX2                !
 ! A6    A(3,1,5)              114.0921         estimate D2E/DX2                !
 ! A7    A(3,1,22)              68.8734         estimate D2E/DX2                !
 ! A8    A(4,1,5)              114.2382         estimate D2E/DX2                !
 ! A9    A(4,1,22)              72.6048         estimate D2E/DX2                !
 ! A10   A(1,2,6)              117.5842         estimate D2E/DX2                !
 ! A11   A(1,3,7)              117.5937         estimate D2E/DX2                !
 ! A12   A(1,4,8)              120.467          estimate D2E/DX2                !
 ! A13   A(1,5,9)              117.6112         estimate D2E/DX2                !
 ! A14   A(2,6,10)             108.647          estimate D2E/DX2                !
 ! A15   A(2,6,11)             111.9053         estimate D2E/DX2                !
 ! A16   A(2,6,12)             112.0339         estimate D2E/DX2                !
 ! A17   A(10,6,11)            108.2519         estimate D2E/DX2                !
 ! A18   A(10,6,12)            108.2169         estimate D2E/DX2                !
 ! A19   A(11,6,12)            107.6569         estimate D2E/DX2                !
 ! A20   A(3,7,13)             112.105          estimate D2E/DX2                !
 ! A21   A(3,7,14)             108.647          estimate D2E/DX2                !
 ! A22   A(3,7,15)             112.0677         estimate D2E/DX2                !
 ! A23   A(13,7,14)            107.9335         estimate D2E/DX2                !
 ! A24   A(13,7,15)            107.754          estimate D2E/DX2                !
 ! A25   A(14,7,15)            108.1834         estimate D2E/DX2                !
 ! A26   A(4,8,16)             111.2846         estimate D2E/DX2                !
 ! A27   A(4,8,17)             109.783          estimate D2E/DX2                !
 ! A28   A(4,8,18)             112.7147         estimate D2E/DX2                !
 ! A29   A(16,8,17)            107.5012         estimate D2E/DX2                !
 ! A30   A(16,8,18)            107.0874         estimate D2E/DX2                !
 ! A31   A(17,8,18)            108.2736         estimate D2E/DX2                !
 ! A32   A(5,9,19)             109.0781         estimate D2E/DX2                !
 ! A33   A(5,9,20)             112.2504         estimate D2E/DX2                !
 ! A34   A(5,9,21)             111.9287         estimate D2E/DX2                !
 ! A35   A(19,9,20)            107.8253         estimate D2E/DX2                !
 ! A36   A(19,9,21)            107.6801         estimate D2E/DX2                !
 ! A37   A(20,9,21)            107.8966         estimate D2E/DX2                !
 ! A38   L(5,1,22,2,-1)        170.2917         estimate D2E/DX2                !
 ! A39   L(5,1,22,2,-2)        182.4692         estimate D2E/DX2                !
 ! D1    D(3,1,2,6)           -171.5294         estimate D2E/DX2                !
 ! D2    D(4,1,2,6)            -57.4053         estimate D2E/DX2                !
 ! D3    D(5,1,2,6)             65.8103         estimate D2E/DX2                !
 ! D4    D(22,1,2,6)          -116.6589         estimate D2E/DX2                !
 ! D5    D(2,1,3,7)            -65.2457         estimate D2E/DX2                !
 ! D6    D(4,1,3,7)            179.9021         estimate D2E/DX2                !
 ! D7    D(5,1,3,7)             52.9029         estimate D2E/DX2                !
 ! D8    D(22,1,3,7)          -116.7775         estimate D2E/DX2                !
 ! D9    D(2,1,4,8)           -154.5731         estimate D2E/DX2                !
 ! D10   D(3,1,4,8)            -40.1773         estimate D2E/DX2                !
 ! D11   D(5,1,4,8)             86.7347         estimate D2E/DX2                !
 ! D12   D(22,1,4,8)          -101.0358         estimate D2E/DX2                !
 ! D13   D(2,1,5,9)           -170.8708         estimate D2E/DX2                !
 ! D14   D(3,1,5,9)             71.04           estimate D2E/DX2                !
 ! D15   D(4,1,5,9)            -51.8564         estimate D2E/DX2                !
 ! D16   D(1,2,6,10)          -172.3311         estimate D2E/DX2                !
 ! D17   D(1,2,6,11)            68.1994         estimate D2E/DX2                !
 ! D18   D(1,2,6,12)           -52.8259         estimate D2E/DX2                !
 ! D19   D(1,3,7,13)            60.088          estimate D2E/DX2                !
 ! D20   D(1,3,7,14)           179.2848         estimate D2E/DX2                !
 ! D21   D(1,3,7,15)           -61.2308         estimate D2E/DX2                !
 ! D22   D(1,4,8,16)           105.1062         estimate D2E/DX2                !
 ! D23   D(1,4,8,17)          -136.0053         estimate D2E/DX2                !
 ! D24   D(1,4,8,18)           -15.2208         estimate D2E/DX2                !
 ! D25   D(1,5,9,19)          -176.0018         estimate D2E/DX2                !
 ! D26   D(1,5,9,20)           -56.5651         estimate D2E/DX2                !
 ! D27   D(1,5,9,21)            64.9432         estimate D2E/DX2                !
 --------------------------------------------------------------------------------
 Trust Radius=3.00D-01 FncErr=1.00D-07 GrdErr=1.00D-06 EigMax=2.50D+02 EigMin=1.00D-04
 Number of steps in this run=     97 maximum allowed number of steps=    132.
 GradGradGradGradGradGradGradGradGradGradGradGradGradGradGradGradGradGrad

                          Input orientation:                          
 ---------------------------------------------------------------------
 Center     Atomic      Atomic             Coordinates (Angstroms)
 Number     Number       Type             X           Y           Z
 ---------------------------------------------------------------------
      1          5           0        2.018768    1.997847    1.854579
      2          8           0        2.104048    2.662203    3.179477
      3          8           0        2.520367    2.964587    0.854940
      4          8           0        2.973930    0.861646    1.859626
      5          8           0        0.602731    1.602195    1.656964
      6          6           0        1.850059    1.869009    4.330908
      7          6           0        1.771204    4.153874    0.656824
      8          6           0        3.523982    0.375151    0.639197
      9          6           0        0.300751    0.770804    0.546832
     10          1           0        1.815460    2.529009    5.212831
     11          1           0        2.640767    1.114137    4.494248
     12          1           0        0.884607    1.333902    4.261417
     13          1           0        1.691238    4.754748    1.582642
     14          1           0        2.280511    4.768905   -0.104381
     15          1           0        0.744879    3.944183    0.301050
     16          1           0        4.576981    0.691461    0.519139
     17          1           0        3.506397   -0.728707    0.635213
     18          1           0        2.974699    0.733145   -0.248348
     19          1           0       -0.793372    0.623830    0.492603
     20          1           0        0.631058    1.215472   -0.412273
     21          1           0        0.769948   -0.227614    0.638352
     22         11           0        4.441338    2.978840    2.573928
 ---------------------------------------------------------------------
                    Distance matrix (angstroms):
                    1          2          3          4          5
     1  B    0.000000
     2  O    1.484587   0.000000
     3  O    1.478332   2.380805   0.000000
     4  O    1.484355   2.395977   2.374336   0.000000
     5  O    1.483494   2.386549   2.485293   2.492402   0.000000
     6  C    2.485411   1.421077   3.705666   2.895704   2.962600
     7  C    2.478782   2.949517   1.419471   3.705678   2.979375
     8  C    2.525067   3.701330   2.785493   1.424318   3.327941
     9  C    2.483429   3.709460   3.135970   2.979524   1.419435
    10  H    3.406072   2.058045   4.435971   3.919966   3.869611
    11  H    2.852311   2.100761   4.084510   2.667580   3.527318
    12  H    2.742264   2.102858   4.115693   3.218213   2.633365
    13  H    2.789575   2.664403   2.102779   4.108316   3.336010
    14  H    3.403645   3.905517   2.057521   4.427734   3.993161
    15  H    2.797226   3.431641   2.102084   4.110944   2.709911
    16  H    3.167727   4.132387   3.083752   2.096578   4.233053
    17  H    3.336763   4.465214   3.828963   2.076519   3.861133
    18  H    2.633548   4.028559   2.530415   2.111888   3.164126
    19  H    3.413362   4.446269   4.073242   4.014708   2.064471
    20  H    2.770644   4.142874   2.869620   3.282646   2.105255
    21  H    2.826913   4.072859   3.647057   2.745093   2.100888
    22  Na   2.710840   2.435134   2.577839   2.673204   4.179818
                    6          7          8          9         10
     6  C    0.000000
     7  C    4.327323   0.000000
     8  C    4.319996   4.165488   0.000000
     9  C    4.233868   3.690460   3.248737   0.000000
    10  H    1.102082   4.837288   5.336317   5.211254   0.000000
    11  H    1.105319   4.972119   4.023380   4.601700   1.788674
    12  H    1.106013   4.661694   4.583229   3.802119   1.788842
    13  H    3.988193   1.106609   4.840445   4.344901   4.260002
    14  H    5.316623   1.103217   4.626468   4.508696   5.788450
    15  H    4.665568   1.106295   4.536050   3.213720   5.222495
    16  H    4.832423   4.458660   1.106016   4.277056   5.747463
    17  H    4.811419   5.181791   1.104005   3.540128   5.867416
    18  H    4.850216   3.737529   1.103453   2.789933   5.864592
    19  H    4.823981   4.366375   4.326995   1.105282   5.719813
    20  H    4.940733   3.328229   3.190727   1.107573   5.896608
    21  H    4.381489   4.494474   2.819226   1.106959   5.442235
    22  Na   3.321661   3.490790   3.371042   5.111654   3.749853
                   11         12         13         14         15
    11  H    0.000000
    12  H    1.785106   0.000000
    13  H    4.757426   4.419126   0.000000
    14  H    5.885109   5.727825   1.787034   0.000000
    15  H    5.402449   4.745271   1.787481   1.789610   0.000000
    16  H    4.441742   5.296320   5.095965   4.721028   5.031180
    17  H    4.363203   4.927220   5.853264   5.680980   5.438156
    18  H    4.769579   5.006733   4.601423   4.097558   3.947746
    19  H    5.295930   4.186141   4.942262   5.194882   3.664376
    20  H    5.303126   4.682061   4.198826   3.929679   2.822702
    21  H    4.490901   3.946908   5.154065   5.272443   4.185486
    22  Na   3.225958   4.266588   3.420461   3.879027   4.445410
                   16         17         18         19         20
    16  H    0.000000
    17  H    1.782273   0.000000
    18  H    1.777099   1.788964   0.000000
    19  H    5.370845   4.509735   3.841786   0.000000
    20  H    4.088083   3.625552   2.398366   1.788252   0.000000
    21  H    3.918216   2.781952   2.563245   1.786104   1.790419
    22  Na   3.077768   4.287031   3.893510   6.105750   5.152193
                   21         22
    21  H    0.000000
    22  Na   5.244703   0.000000
 Stoichiometry    C4H12BNaO4
 Framework group  C1[X(C4H12BNaO4)]
 Deg. of freedom    60
 Full point group                 C1      NOp   1
 Largest Abelian subgroup         C1      NOp   1
 Largest concise Abelian subgroup C1      NOp   1
                         Standard orientation:                         
 ---------------------------------------------------------------------
 Center     Atomic      Atomic             Coordinates (Angstroms)
 Number     Number       Type             X           Y           Z
 ---------------------------------------------------------------------
      1          5           0        0.160614    0.189685    0.079271
      2          8           0       -0.997851    1.022085    0.490448
      3          8           0        0.039826   -1.099190    0.793188
      4          8           0        0.006437   -0.111950   -1.365913
      5          8           0        1.386537    0.954948    0.414289
      6          6           0       -1.208221    2.245015   -0.202116
      7          6           0        0.155035   -1.080538    2.207853
      8          6           0        0.604927   -1.275474   -1.928678
      9          6           0        2.625777    0.454230   -0.063582
     10          1           0       -2.011032    2.803890    0.305561
     11          1           0       -1.513022    2.077591   -1.251305
     12          1           0       -0.300628    2.877011   -0.213213
     13          1           0       -0.619991   -0.447642    2.680463
     14          1           0        0.030079   -2.109534    2.585533
     15          1           0        1.142717   -0.708595    2.539563
     16          1           0       -0.150546   -2.057327   -2.131749
     17          1           0        1.085760   -1.020923   -2.889318
     18          1           0        1.366799   -1.724411   -1.268665
     19          1           0        3.444863    1.086595    0.324825
     20          1           0        2.813852   -0.585662    0.268035
     21          1           0        2.681020    0.474022   -1.168985
     22         11           0       -2.301604   -0.890906   -0.264914
 ---------------------------------------------------------------------
 Rotational constants (GHZ):           1.2937244           1.0050802           0.9838406
 General basis read from cards:  (5D, 7F)
 There are   325 symmetry adapted cartesian basis functions of A   symmetry.
 There are   306 symmetry adapted basis functions of A   symmetry.
   306 basis functions,   457 primitive gaussians,   325 cartesian basis functions
    42 alpha electrons       42 beta electrons
       nuclear repulsion energy       642.7961041870 Hartrees.
 NAtoms=   22 NActive=   22 NUniq=   22 SFac= 1.00D+00 NAtFMM=   60 NAOKFM=F Big=F
 Integral buffers will be    131072 words long.
 Raffenetti 2 integral format.
 Two-electron integral symmetry is turned on.
 Nuclear repulsion after empirical dispersion term =      642.7786114784 Hartrees.
 ------------------------------------------------------------------------------
 Polarizable Continuum Model (PCM)
 =================================
 Model                : C-PCM.
 Atomic radii         : UFF (Universal Force Field).
 Polarization charges : Total charges.
 Charge compensation  : None.
 Solution method      : On-the-fly selection.
 Cavity type          : Scaled VdW (van der Waals Surface) (Alpha=1.100).
 Cavity algorithm     : GePol (No added spheres)
                        Default sphere list used, NSphG=   22.
                        Lebedev-Laikov grids with approx.  5.0 points / Ang**2.
                        Smoothing algorithm: York/Karplus (Gamma=1.0000).
                        Polarization charges: spherical gaussians, with
                                              point-specific exponents (IZeta= 3).
                        Self-potential: point-specific (ISelfS= 7).
                        Self-field    : sphere-specific E.n sum rule (ISelfD= 2).
 1st derivatives      : Analytical E(r).r(x)/FMM algorithm (CHGder, D1EAlg=3).
                        Cavity 1st derivative terms included.
 Solvent              : Water, Eps=  78.355300 Eps(inf)=   1.777849
 ------------------------------------------------------------------------------
 One-electron integrals computed using PRISM.
 NBasis=   306 RedAO= T EigKep=  2.75D-05  NBF=   306
 NBsUse=   306 1.00D-06 EigRej= -1.00D+00 NBFU=   306
 ExpMin= 1.99D-02 ExpMax= 4.10D+03 ExpMxC= 6.16D+02 IAcc=3 IRadAn=         5 AccDes= 0.00D+00
 Harris functional with IExCor= 4639 and IRadAn=       5 diagonalized for initial guess.
 HarFok:  IExCor= 4639 AccDes= 0.00D+00 IRadAn=         5 IDoV= 1 UseB2=F ITyADJ=14
 ICtDFT=  3500011 ScaDFX=  1.000000  1.000000  1.000000  1.000000
 FoFCou: FMM=F IPFlag=           0 FMFlag=      100000 FMFlg1=           0
         NFxFlg=           0 DoJE=T BraDBF=F KetDBF=T FulRan=T
         wScrn=  0.000000 ICntrl=       500 IOpCl=  0 I1Cent=   200000004 NGrid=           0
         NMat0=    1 NMatS0=      1 NMatT0=    0 NMatD0=    1 NMtDS0=    0 NMtDT0=    0
 Petite list used in FoFCou.
 Requested convergence on RMS density matrix=1.00D-08 within 128 cycles.
 Requested convergence on MAX density matrix=1.00D-06.
 Requested convergence on             energy=1.00D-06.
 No special actions if energy rises.
 Inv3:  Mode=1 IEnd=     8487372.
 Iteration    1 A*A^-1 deviation from unit magnitude is 3.11D-15 for    204.
 Iteration    1 A*A^-1 deviation from orthogonality  is 1.88D-15 for   1288    859.
 Iteration    1 A^-1*A deviation from unit magnitude is 3.11D-15 for    204.
 Iteration    1 A^-1*A deviation from orthogonality  is 1.78D-15 for   1585    205.
 Error on total polarization charges =  0.01468
 SCF Done:  E(RwB97XD) =  -647.373054588     A.U. after   13 cycles
            NFock= 13  Conv=0.48D-08     -V/T= 2.0098

 **********************************************************************

            Population analysis using the SCF density.

 **********************************************************************

 Orbital symmetries:
       Occupied  (A) (A) (A) (A) (A) (A) (A) (A) (A) (A) (A) (A)
                 (A) (A) (A) (A) (A) (A) (A) (A) (A) (A) (A) (A)
                 (A) (A) (A) (A) (A) (A) (A) (A) (A) (A) (A) (A)
                 (A) (A) (A) (A) (A) (A)
       Virtual   (A) (A) (A) (A) (A) (A) (A) (A) (A) (A) (A) (A)
                 (A) (A) (A) (A) (A) (A) (A) (A) (A) (A) (A) (A)
                 (A) (A) (A) (A) (A) (A) (A) (A) (A) (A) (A) (A)
                 (A) (A) (A) (A) (A) (A) (A) (A) (A) (A) (A) (A)
                 (A) (A) (A) (A) (A) (A) (A) (A) (A) (A) (A) (A)
                 (A) (A) (A) (A) (A) (A) (A) (A) (A) (A) (A) (A)
                 (A) (A) (A) (A) (A) (A) (A) (A) (A) (A) (A) (A)
                 (A) (A) (A) (A) (A) (A) (A) (A) (A) (A) (A) (A)
                 (A) (A) (A) (A) (A) (A) (A) (A) (A) (A) (A) (A)
                 (A) (A) (A) (A) (A) (A) (A) (A) (A) (A) (A) (A)
                 (A) (A) (A) (A) (A) (A) (A) (A) (A) (A) (A) (A)
                 (A) (A) (A) (A) (A) (A) (A) (A) (A) (A) (A) (A)
                 (A) (A) (A) (A) (A) (A) (A) (A) (A) (A) (A) (A)
                 (A) (A) (A) (A) (A) (A) (A) (A) (A) (A) (A) (A)
                 (A) (A) (A) (A) (A) (A) (A) (A) (A) (A) (A) (A)
                 (A) (A) (A) (A) (A) (A) (A) (A) (A) (A) (A) (A)
                 (A) (A) (A) (A) (A) (A) (A) (A) (A) (A) (A) (A)
                 (A) (A) (A) (A) (A) (A) (A) (A) (A) (A) (A) (A)
                 (A) (A) (A) (A) (A) (A) (A) (A) (A) (A) (A) (A)
                 (A) (A) (A) (A) (A) (A) (A) (A) (A) (A) (A) (A)
                 (A) (A) (A) (A) (A) (A) (A) (A) (A) (A) (A) (A)
                 (A) (A) (A) (A) (A) (A) (A) (A) (A) (A) (A) (A)
 The electronic state is 1-A.
 Alpha  occ. eigenvalues --  -38.57512 -19.22182 -19.22038 -19.21989 -19.21503
 Alpha  occ. eigenvalues --  -10.32581 -10.32481 -10.32400 -10.32384  -6.88497
 Alpha  occ. eigenvalues --   -2.28890  -1.20813  -1.20785  -1.20767  -1.09899
 Alpha  occ. eigenvalues --   -1.04935  -1.04637  -1.04420  -0.76389  -0.74369
 Alpha  occ. eigenvalues --   -0.74016  -0.73550  -0.59934  -0.55857  -0.55766
 Alpha  occ. eigenvalues --   -0.55473  -0.51958  -0.51498  -0.49848  -0.49180
 Alpha  occ. eigenvalues --   -0.48924  -0.48303  -0.48026  -0.47873  -0.40350
 Alpha  occ. eigenvalues --   -0.37988  -0.37715  -0.36689  -0.33985  -0.33840
 Alpha  occ. eigenvalues --   -0.32939  -0.31796
 Alpha virt. eigenvalues --    0.03921   0.05160   0.05167   0.06747   0.10263
 Alpha virt. eigenvalues --    0.11490   0.12138   0.13678   0.13933   0.14170
 Alpha virt. eigenvalues --    0.14840   0.15955   0.16533   0.16611   0.17119
 Alpha virt. eigenvalues --    0.17769   0.18488   0.19223   0.19832   0.20545
 Alpha virt. eigenvalues --    0.21465   0.22048   0.22316   0.22886   0.23853
 Alpha virt. eigenvalues --    0.24326   0.24462   0.25926   0.26229   0.26971
 Alpha virt. eigenvalues --    0.27759   0.28215   0.29273   0.29755   0.30427
 Alpha virt. eigenvalues --    0.31291   0.31689   0.32603   0.33300   0.33515
 Alpha virt. eigenvalues --    0.34289   0.34652   0.35508   0.36870   0.37054
 Alpha virt. eigenvalues --    0.37843   0.38805   0.39133   0.39626   0.39858
 Alpha virt. eigenvalues --    0.39900   0.40968   0.41621   0.42053   0.42510
 Alpha virt. eigenvalues --    0.42737   0.43346   0.44094   0.44360   0.44417
 Alpha virt. eigenvalues --    0.45180   0.45678   0.46073   0.46553   0.46757
 Alpha virt. eigenvalues --    0.47790   0.47980   0.48625   0.49039   0.49253
 Alpha virt. eigenvalues --    0.49852   0.50659   0.50903   0.51810   0.52062
 Alpha virt. eigenvalues --    0.52216   0.52880   0.53275   0.54251   0.54639
 Alpha virt. eigenvalues --    0.55150   0.55492   0.55851   0.56344   0.56712
 Alpha virt. eigenvalues --    0.57132   0.58037   0.58689   0.59559   0.60053
 Alpha virt. eigenvalues --    0.60474   0.60745   0.61179   0.61498   0.62368
 Alpha virt. eigenvalues --    0.62467   0.62862   0.63385   0.63995   0.64725
 Alpha virt. eigenvalues --    0.65039   0.66205   0.67030   0.67375   0.68306
 Alpha virt. eigenvalues --    0.68902   0.69634   0.69872   0.70915   0.71948
 Alpha virt. eigenvalues --    0.72646   0.74506   0.75139   0.76241   0.77168
 Alpha virt. eigenvalues --    0.78072   0.78721   0.79881   0.80330   0.83149
 Alpha virt. eigenvalues --    0.84103   0.85115   0.85868   0.87678   0.88452
 Alpha virt. eigenvalues --    0.89866   0.91913   0.92074   0.93229   0.93914
 Alpha virt. eigenvalues --    0.96113   0.97413   0.98602   0.99223   1.00788
 Alpha virt. eigenvalues --    1.03998   1.04729   1.05762   1.07780   1.09527
 Alpha virt. eigenvalues --    1.10251   1.11318   1.12979   1.13610   1.15100
 Alpha virt. eigenvalues --    1.15811   1.16361   1.17154   1.17501   1.19681
 Alpha virt. eigenvalues --    1.21347   1.22061   1.24637   1.26029   1.28400
 Alpha virt. eigenvalues --    1.31164   1.33580   1.36663   1.38333   1.38550
 Alpha virt. eigenvalues --    1.40490   1.43371   1.44539   1.45295   1.47830
 Alpha virt. eigenvalues --    1.52826   1.53752   1.55526   1.57326   1.61558
 Alpha virt. eigenvalues --    1.63644   1.65240   1.67006   1.68677   1.72305
 Alpha virt. eigenvalues --    1.75084   1.75920   1.78498   1.80259   1.80570
 Alpha virt. eigenvalues --    1.81129   1.81853   1.83771   1.85756   1.87774
 Alpha virt. eigenvalues --    1.89193   1.89452   1.90595   1.93903   1.95299
 Alpha virt. eigenvalues --    1.96713   1.96901   2.00992   2.01568   2.04344
 Alpha virt. eigenvalues --    2.04669   2.05993   2.08292   2.09305   2.10088
 Alpha virt. eigenvalues --    2.10764   2.10997   2.13070   2.13926   2.14751
 Alpha virt. eigenvalues --    2.16707   2.19395   2.20672   2.22692   2.25510
 Alpha virt. eigenvalues --    2.26052   2.27610   2.29190   2.31930   2.34244
 Alpha virt. eigenvalues --    2.36955   2.37768   2.40616   2.41588   2.43320
 Alpha virt. eigenvalues --    2.47675   2.48075   2.49140   2.52266   2.59844
 Alpha virt. eigenvalues --    2.60158   2.61324   2.61791   2.63540   2.63895
 Alpha virt. eigenvalues --    2.66765   2.68173   2.85965   2.86416   2.87491
 Alpha virt. eigenvalues --    2.88038   3.01333   3.06477   3.08021   3.10673
 Alpha virt. eigenvalues --    3.12626   3.13762   3.15594   3.17072   3.18704
 Alpha virt. eigenvalues --    3.20795   3.22130   3.23329   3.24447   3.26208
 Alpha virt. eigenvalues --    3.27465   3.28578   3.29748   3.31145   3.34387
 Alpha virt. eigenvalues --    3.36564   3.42065   3.54043   3.58212   3.59575
 Alpha virt. eigenvalues --    3.63733   3.68314   3.73317   3.74813
          Condensed to atoms (all electrons):
               1          2          3          4          5          6
     1  B    7.402107  -0.729726  -0.898627  -0.953201  -0.857547   0.001996
     2  O   -0.729726   9.926138   0.121868  -0.093888  -0.535941   0.217518
     3  O   -0.898627   0.121868   9.516596   0.128983   0.160679  -0.021603
     4  O   -0.953201  -0.093888   0.128983   9.752146   0.290468   0.020510
     5  O   -0.857547  -0.535941   0.160679   0.290468  10.125087   0.031612
     6  C    0.001996   0.217518  -0.021603   0.020510   0.031612   3.986910
     7  C    0.024325   0.028278   0.169901  -0.000020   0.008911  -0.000843
     8  C    0.093991   0.002627  -0.022840   0.082002  -0.026177  -0.001577
     9  C    0.109121   0.064093   0.000911  -0.014315  -0.023969   0.000069
    10  H   -0.088873   0.089940  -0.000603  -0.002260   0.011058   0.337893
    11  H   -0.028923   0.006557   0.004250   0.043580   0.002930   0.295681
    12  H    0.219495  -0.055985  -0.008674  -0.008208  -0.039704   0.287181
    13  H    0.063265  -0.000165   0.048533   0.004694  -0.004497  -0.000971
    14  H   -0.019723   0.014571   0.049980  -0.005810  -0.003604   0.000677
    15  H    0.140730  -0.012999  -0.006916   0.001922  -0.029636  -0.002380
    16  H   -0.093806  -0.011254  -0.027058   0.109350   0.018226   0.000877
    17  H   -0.005101   0.017071   0.013583   0.063727  -0.036827  -0.000911
    18  H    0.068468   0.007071  -0.009721   0.038736  -0.014108  -0.000504
    19  H    0.055307   0.015053  -0.005188  -0.002915  -0.160993   0.000243
    20  H    0.049965  -0.003798  -0.024681  -0.001122   0.101842  -0.000755
    21  H    0.063272  -0.005647   0.008671   0.009558   0.083503  -0.000531
    22  Na  -0.195500   0.036637  -0.024957  -0.045306  -0.003849   0.018362
               7          8          9         10         11         12
     1  B    0.024325   0.093991   0.109121  -0.088873  -0.028923   0.219495
     2  O    0.028278   0.002627   0.064093   0.089940   0.006557  -0.055985
     3  O    0.169901  -0.022840   0.000911  -0.000603   0.004250  -0.008674
     4  O   -0.000020   0.082002  -0.014315  -0.002260   0.043580  -0.008208
     5  O    0.008911  -0.026177  -0.023969   0.011058   0.002930  -0.039704
     6  C   -0.000843  -0.001577   0.000069   0.337893   0.295681   0.287181
     7  C    3.980695   0.002832   0.007663  -0.000235   0.000217  -0.000594
     8  C    0.002832   3.970162   0.025167   0.000422  -0.002460  -0.001579
     9  C    0.007663   0.025167   4.005935   0.000332  -0.002458  -0.001126
    10  H   -0.000235   0.000422   0.000332   0.989902  -0.080858  -0.093507
    11  H    0.000217  -0.002460  -0.002458  -0.080858   0.757046   0.006873
    12  H   -0.000594  -0.001579  -0.001126  -0.093507   0.006873   0.686921
    13  H    0.270383  -0.001387  -0.001535   0.000064  -0.000047   0.000137
    14  H    0.346089   0.001966   0.000842   0.000030  -0.000029  -0.000009
    15  H    0.261491  -0.000639  -0.006306  -0.000309  -0.000063   0.000363
    16  H   -0.000629   0.218765   0.003129   0.000014   0.000309  -0.000004
    17  H    0.000137   0.268364  -0.004735   0.000008  -0.000445  -0.000078
    18  H   -0.002955   0.311139   0.006397   0.000009  -0.000373  -0.000130
    19  H   -0.000982   0.006050   0.424155  -0.000032  -0.000094   0.001580
    20  H   -0.000933  -0.003448   0.234702  -0.000039  -0.000133  -0.000145
    21  H   -0.001171  -0.012252   0.212043  -0.000082   0.000321  -0.000431
    22  Na   0.012459   0.015651   0.004599   0.010057   0.007268  -0.012184
              13         14         15         16         17         18
     1  B    0.063265  -0.019723   0.140730  -0.093806  -0.005101   0.068468
     2  O   -0.000165   0.014571  -0.012999  -0.011254   0.017071   0.007071
     3  O    0.048533   0.049980  -0.006916  -0.027058   0.013583  -0.009721
     4  O    0.004694  -0.005810   0.001922   0.109350   0.063727   0.038736
     5  O   -0.004497  -0.003604  -0.029636   0.018226  -0.036827  -0.014108
     6  C   -0.000971   0.000677  -0.002380   0.000877  -0.000911  -0.000504
     7  C    0.270383   0.346089   0.261491  -0.000629   0.000137  -0.002955
     8  C   -0.001387   0.001966  -0.000639   0.218765   0.268364   0.311139
     9  C   -0.001535   0.000842  -0.006306   0.003129  -0.004735   0.006397
    10  H    0.000064   0.000030  -0.000309   0.000014   0.000008   0.000009
    11  H   -0.000047  -0.000029  -0.000063   0.000309  -0.000445  -0.000373
    12  H    0.000137  -0.000009   0.000363  -0.000004  -0.000078  -0.000130
    13  H    0.736066  -0.091394   0.004938  -0.000313   0.000025  -0.000166
    14  H   -0.091394   0.961315  -0.094085   0.000237  -0.000041  -0.000270
    15  H    0.004938  -0.094085   0.707135  -0.000019  -0.000024  -0.000743
    16  H   -0.000313   0.000237  -0.000019   1.179840  -0.284808  -0.036437
    17  H    0.000025  -0.000041  -0.000024  -0.284808   1.070439   0.020570
    18  H   -0.000166  -0.000270  -0.000743  -0.036437   0.020570   0.579445
    19  H   -0.000222  -0.000097  -0.000446  -0.000419   0.002047   0.002623
    20  H    0.000307   0.000822   0.001286   0.000981  -0.000144   0.000111
    21  H   -0.000121  -0.000040   0.000879   0.003378  -0.006657  -0.017028
    22  Na  -0.000749   0.005964  -0.008806   0.025618  -0.002447  -0.003184
              19         20         21         22
     1  B    0.055307   0.049965   0.063272  -0.195500
     2  O    0.015053  -0.003798  -0.005647   0.036637
     3  O   -0.005188  -0.024681   0.008671  -0.024957
     4  O   -0.002915  -0.001122   0.009558  -0.045306
     5  O   -0.160993   0.101842   0.083503  -0.003849
     6  C    0.000243  -0.000755  -0.000531   0.018362
     7  C   -0.000982  -0.000933  -0.001171   0.012459
     8  C    0.006050  -0.003448  -0.012252   0.015651
     9  C    0.424155   0.234702   0.212043   0.004599
    10  H   -0.000032  -0.000039  -0.000082   0.010057
    11  H   -0.000094  -0.000133   0.000321   0.007268
    12  H    0.001580  -0.000145  -0.000431  -0.012184
    13  H   -0.000222   0.000307  -0.000121  -0.000749
    14  H   -0.000097   0.000822  -0.000040   0.005964
    15  H   -0.000446   0.001286   0.000879  -0.008806
    16  H   -0.000419   0.000981   0.003378   0.025618
    17  H    0.002047  -0.000144  -0.006657  -0.002447
    18  H    0.002623   0.000111  -0.017028  -0.003184
    19  H    1.246591  -0.167179  -0.143523   0.000305
    20  H   -0.167179   0.712347   0.045547   0.000385
    21  H   -0.143523   0.045547   0.677630   0.000537
    22  Na   0.000305   0.000385   0.000537  10.088760
 Mulliken charges:
               1
     1  B    0.578984
     2  O   -1.098019
     3  O   -1.173088
     4  O   -1.418631
     5  O   -1.097464
     6  C    0.830545
     7  C    0.894982
     8  C    1.073220
     9  C    0.955287
    10  H   -0.172931
    11  H   -0.009149
    12  H    0.019808
    13  H   -0.026846
    14  H   -0.167388
    15  H    0.044627
    16  H   -0.105977
    17  H   -0.113752
    18  H    0.051049
    19  H   -0.271864
    20  H    0.054082
    21  H    0.082144
    22  Na   1.070381
 Sum of Mulliken charges =  -0.00000
 Mulliken charges with hydrogens summed into heavy atoms:
               1
     1  B    0.578984
     2  O   -1.098019
     3  O   -1.173088
     4  O   -1.418631
     5  O   -1.097464
     6  C    0.668273
     7  C    0.745375
     8  C    0.904540
     9  C    0.819649
    22  Na   1.070381
 Electronic spatial extent (au):  <R**2>=           1566.6178
 Charge=             -0.0000 electrons
 Dipole moment (field-independent basis, Debye):
    X=             -8.8909    Y=             -5.4093    Z=             -1.8313  Tot=             10.5671
 Quadrupole moment (field-independent basis, Debye-Ang):
   XX=            -38.7248   YY=            -61.5218   ZZ=            -63.8803
   XY=              7.0910   XZ=              2.0888   YZ=              0.0873
 Traceless Quadrupole moment (field-independent basis, Debye-Ang):
   XX=             15.9842   YY=             -6.8129   ZZ=             -9.1713
   XY=              7.0910   XZ=              2.0888   YZ=              0.0873
 Octapole moment (field-independent basis, Debye-Ang**2):
  XXX=            -91.6713  YYY=            -15.9481  ZZZ=             -0.1515  XYY=            -26.9824
  XXY=            -29.2666  XXZ=            -11.1946  XZZ=            -12.0424  YZZ=            -12.4306
  YYZ=             -6.0793  XYZ=             -2.8406
 Hexadecapole moment (field-independent basis, Debye-Ang**3):
 XXXX=           -567.7583 YYYY=           -604.5846 ZZZZ=           -611.2427 XXXY=             92.8250
 XXXZ=             29.6540 YYYX=             36.7167 YYYZ=              2.6331 ZZZX=              5.4966
 ZZZY=              1.5872 XXYY=           -198.7556 XXZZ=           -221.4554 YYZZ=           -201.9492
 XXYZ=              7.2485 YYXZ=              5.0109 ZZXY=             11.9008
 N-N= 6.427786114784D+02 E-N=-2.812372013976D+03  KE= 6.411043503401D+02
 D1PCM: C-PCM CHGder 1st derivatives, ID1Alg=3 FixD1E=F DoIter=F DoCFld=F I1PDM=0.
 Calling FoFJK, ICntrl=      2127 FMM=F ISym2X=0 I1Cent= 0 IOpClX= 0 NMat=1 NMatS=1 NMatT=0.
 ***** Axes restored to original set *****
 -------------------------------------------------------------------
 Center     Atomic                   Forces (Hartrees/Bohr)
 Number     Number              X              Y              Z
 -------------------------------------------------------------------
      1        5          -0.004787287   -0.000182889    0.002719382
      2        8          -0.001036103   -0.012145613    0.007782371
      3        8          -0.010438475    0.009229714    0.001589647
      4        8           0.002736052   -0.000568354   -0.014793119
      5        8           0.007516841   -0.007746859   -0.014028081
      6        6           0.000825051    0.007105988   -0.009351445
      7        6           0.006206104   -0.008592814    0.000742493
      8        6          -0.004699452    0.003776911    0.009936384
      9        6           0.000411402    0.007739908    0.010920220
     10        1           0.000269017   -0.000848629   -0.001324937
     11        1          -0.000302073    0.001377281   -0.000923854
     12        1           0.001704615    0.001887706   -0.001095360
     13        1           0.000630503   -0.002122328   -0.001084712
     14        1          -0.000815891   -0.001649539    0.001415674
     15        1           0.002380349   -0.001115526    0.000816133
     16        1          -0.001547944    0.000182484    0.001198779
     17        1          -0.000601396    0.001817594    0.000702075
     18        1           0.000698484   -0.000660994    0.002865478
     19        1           0.003383134    0.001116128    0.000798279
     20        1          -0.000188066   -0.000039736    0.001821476
     21        1          -0.000213348    0.001971345    0.000091297
     22       11          -0.002131519   -0.000531779   -0.000798180
 -------------------------------------------------------------------
 Cartesian Forces:  Max     0.014793119 RMS     0.004950383

 GradGradGradGradGradGradGradGradGradGradGradGradGradGradGradGradGradGrad
 Berny optimization.
 FormGI is forming the generalized inverse of G from B-inverse, IUseBI=4.
 Internal  Forces:  Max     0.017714625 RMS     0.004069746
 Search for a local minimum.
 Step number   1 out of a maximum of   97
 All quantities printed in internal units (Hartrees-Bohrs-Radians)
 Mixed Optimization -- RFO/linear search
 Second derivative matrix not updated -- first step.
 ITU=  0
     Eigenvalues ---    0.01102   0.01105   0.01117   0.01185   0.01370
     Eigenvalues ---    0.01413   0.01434   0.01435   0.03714   0.06946
     Eigenvalues ---    0.07144   0.09899   0.09915   0.09931   0.09952
     Eigenvalues ---    0.10181   0.10276   0.10306   0.10313   0.10458
     Eigenvalues ---    0.10847   0.14263   0.16000   0.16000   0.16000
     Eigenvalues ---    0.16000   0.16000   0.16000   0.16000   0.16000
     Eigenvalues ---    0.16000   0.16000   0.16000   0.16000   0.20856
     Eigenvalues ---    0.21293   0.25000   0.25000   0.25000   0.25000
     Eigenvalues ---    0.32858   0.32924   0.32962   0.32995   0.33025
     Eigenvalues ---    0.33026   0.33101   0.33105   0.33243   0.33303
     Eigenvalues ---    0.33329   0.33453   0.34050   0.34076   0.34173
     Eigenvalues ---    0.34761   0.41817   0.42299   0.42540   0.42546
 RFO step:  Lambda=-4.00765046D-03 EMin= 1.10216174D-02
 Linear search not attempted -- first point.
 Iteration  1 RMS(Cart)=  0.05014870 RMS(Int)=  0.00065536
 Iteration  2 RMS(Cart)=  0.00093240 RMS(Int)=  0.00001788
 Iteration  3 RMS(Cart)=  0.00000044 RMS(Int)=  0.00001787
 Variable       Old X    -DE/DX   Delta X   Delta X   Delta X     New X
                                 (Linear)    (Quad)   (Total)
    R1        2.80546  -0.00546   0.00000  -0.01586  -0.01586   2.78960
    R2        2.79364  -0.00582   0.00000  -0.01656  -0.01656   2.77708
    R3        2.80502  -0.00568   0.00000  -0.01648  -0.01648   2.78855
    R4        2.80340  -0.01116   0.00000  -0.03228  -0.03228   2.77112
    R5        5.12275  -0.00231   0.00000  -0.05610  -0.05610   5.06665
    R6        2.68545  -0.01606   0.00000  -0.03761  -0.03761   2.64784
    R7        2.68241  -0.01599   0.00000  -0.03724  -0.03724   2.64517
    R8        2.69157  -0.01672   0.00000  -0.03959  -0.03959   2.65198
    R9        2.68234  -0.01771   0.00000  -0.04125  -0.04125   2.64109
   R10        2.08263  -0.00157   0.00000  -0.00465  -0.00465   2.07798
   R11        2.08875  -0.00129   0.00000  -0.00385  -0.00385   2.08490
   R12        2.09006  -0.00234   0.00000  -0.00700  -0.00700   2.08306
   R13        2.09119  -0.00211   0.00000  -0.00632  -0.00632   2.08487
   R14        2.08478  -0.00227   0.00000  -0.00674  -0.00674   2.07804
   R15        2.09059  -0.00226   0.00000  -0.00676  -0.00676   2.08384
   R16        2.09007  -0.00155   0.00000  -0.00465  -0.00465   2.08542
   R17        2.08627  -0.00181   0.00000  -0.00538  -0.00538   2.08089
   R18        2.08522  -0.00286   0.00000  -0.00850  -0.00850   2.07673
   R19        2.08868  -0.00353   0.00000  -0.01055  -0.01055   2.07813
   R20        2.09301  -0.00166   0.00000  -0.00498  -0.00498   2.08803
   R21        2.09185  -0.00186   0.00000  -0.00558  -0.00558   2.08627
    A1        1.86641   0.00015   0.00000   0.00224   0.00225   1.86866
    A2        1.87816  -0.00125   0.00000  -0.00639  -0.00641   1.87175
    A3        1.86822   0.00156   0.00000   0.01149   0.01150   1.87973
    A4        1.10393  -0.00079   0.00000  -0.00172  -0.00170   1.10222
    A5        1.85931   0.00054   0.00000   0.00038   0.00038   1.85968
    A6        1.99128  -0.00136   0.00000  -0.01063  -0.01063   1.98065
    A7        1.20207   0.00025   0.00000  -0.00401  -0.00400   1.19806
    A8        1.99383   0.00031   0.00000   0.00289   0.00289   1.99672
    A9        1.26719   0.00001   0.00000   0.00241   0.00242   1.26961
   A10        2.05223  -0.00047   0.00000  -0.00186  -0.00186   2.05038
   A11        2.05240  -0.00168   0.00000  -0.00659  -0.00659   2.04580
   A12        2.10255   0.00203   0.00000   0.00798   0.00798   2.11053
   A13        2.05270   0.00103   0.00000   0.00405   0.00405   2.05675
   A14        1.89625   0.00038   0.00000   0.00269   0.00269   1.89894
   A15        1.95312  -0.00117   0.00000  -0.00735  -0.00737   1.94575
   A16        1.95536  -0.00187   0.00000  -0.01156  -0.01158   1.94378
   A17        1.88935   0.00050   0.00000   0.00336   0.00336   1.89271
   A18        1.88874   0.00085   0.00000   0.00553   0.00553   1.89427
   A19        1.87897   0.00144   0.00000   0.00818   0.00814   1.88711
   A20        1.95660  -0.00136   0.00000  -0.00844  -0.00848   1.94812
   A21        1.89625   0.00021   0.00000   0.00222   0.00222   1.89847
   A22        1.95595  -0.00208   0.00000  -0.01351  -0.01355   1.94240
   A23        1.88379   0.00115   0.00000   0.00859   0.00858   1.89238
   A24        1.88066   0.00128   0.00000   0.00607   0.00599   1.88666
   A25        1.88816   0.00100   0.00000   0.00636   0.00635   1.89450
   A26        1.94228  -0.00123   0.00000  -0.00718  -0.00720   1.93509
   A27        1.91607  -0.00084   0.00000  -0.00516  -0.00518   1.91089
   A28        1.96724  -0.00090   0.00000  -0.00572  -0.00574   1.96151
   A29        1.87625   0.00122   0.00000   0.00793   0.00791   1.88416
   A30        1.86903   0.00120   0.00000   0.00746   0.00745   1.87647
   A31        1.88973   0.00072   0.00000   0.00385   0.00383   1.89356
   A32        1.90377  -0.00092   0.00000  -0.00530  -0.00531   1.89846
   A33        1.95914  -0.00099   0.00000  -0.00658  -0.00660   1.95254
   A34        1.95352  -0.00029   0.00000  -0.00152  -0.00153   1.95200
   A35        1.88191   0.00077   0.00000   0.00416   0.00414   1.88604
   A36        1.87937   0.00104   0.00000   0.00747   0.00747   1.88684
   A37        1.88315   0.00052   0.00000   0.00264   0.00263   1.88579
   A38        2.97215   0.00077   0.00000   0.00977   0.00980   2.98195
   A39        3.18469   0.00102   0.00000   0.01341   0.01340   3.19809
    D1       -2.99375  -0.00048   0.00000  -0.02420  -0.02418  -3.01793
    D2       -1.00191  -0.00038   0.00000  -0.02571  -0.02571  -1.02762
    D3        1.14861   0.00018   0.00000  -0.01926  -0.01928   1.12933
    D4       -2.03608  -0.00084   0.00000  -0.03267  -0.03267  -2.06875
    D5       -1.13875  -0.00118   0.00000  -0.02813  -0.02814  -1.16689
    D6        3.13988  -0.00007   0.00000  -0.02204  -0.02203   3.11785
    D7        0.92333   0.00006   0.00000  -0.01858  -0.01860   0.90473
    D8       -2.03815  -0.00024   0.00000  -0.02149  -0.02147  -2.05962
    D9       -2.69781   0.00039   0.00000   0.00085   0.00085  -2.69696
   D10       -0.70123   0.00023   0.00000   0.00061   0.00062  -0.70061
   D11        1.51381  -0.00090   0.00000  -0.01093  -0.01092   1.50288
   D12       -1.76341   0.00021   0.00000   0.00425   0.00424  -1.75917
   D13       -2.98226  -0.00045   0.00000  -0.04532  -0.04536  -3.02761
   D14        1.23988  -0.00089   0.00000  -0.04958  -0.04955   1.19033
   D15       -0.90506  -0.00076   0.00000  -0.04370  -0.04369  -0.94876
   D16       -3.00775  -0.00012   0.00000  -0.00648  -0.00648  -3.01423
   D17        1.19030  -0.00027   0.00000  -0.00789  -0.00786   1.18245
   D18       -0.92199   0.00004   0.00000  -0.00497  -0.00500  -0.92699
   D19        1.04873  -0.00052   0.00000  -0.00528  -0.00523   1.04350
   D20        3.12911   0.00021   0.00000   0.00165   0.00165   3.13076
   D21       -1.06868   0.00030   0.00000   0.00268   0.00263  -1.06605
   D22        1.83445  -0.00007   0.00000  -0.00134  -0.00133   1.83312
   D23       -2.37374   0.00015   0.00000   0.00069   0.00069  -2.37305
   D24       -0.26565  -0.00012   0.00000  -0.00185  -0.00185  -0.26750
   D25       -3.07181   0.00010   0.00000  -0.00662  -0.00663  -3.07844
   D26       -0.98725  -0.00017   0.00000  -0.00908  -0.00908  -0.99632
   D27        1.13347  -0.00042   0.00000  -0.01151  -0.01150   1.12197
         Item               Value     Threshold  Converged?
 Maximum Force            0.017715     0.000450     NO 
 RMS     Force            0.004070     0.000300     NO 
 Maximum Displacement     0.207717     0.001800     NO 
 RMS     Displacement     0.050000     0.001200     NO 
 Predicted change in Energy=-2.054125D-03
 GradGradGradGradGradGradGradGradGradGradGradGradGradGradGradGradGradGrad

                          Input orientation:                          
 ---------------------------------------------------------------------
 Center     Atomic      Atomic             Coordinates (Angstroms)
 Number     Number       Type             X           Y           Z
 ---------------------------------------------------------------------
      1          5           0        2.026896    1.988813    1.863391
      2          8           0        2.126135    2.648361    3.180317
      3          8           0        2.513814    2.948495    0.862614
      4          8           0        2.980723    0.862888    1.865079
      5          8           0        0.627703    1.597238    1.665173
      6          6           0        1.858816    1.870547    4.314706
      7          6           0        1.748224    4.102021    0.656233
      8          6           0        3.521686    0.374171    0.665933
      9          6           0        0.318346    0.827503    0.540401
     10          1           0        1.844174    2.525361    5.197978
     11          1           0        2.631492    1.097674    4.465928
     12          1           0        0.881321    1.367258    4.235413
     13          1           0        1.651816    4.696657    1.580521
     14          1           0        2.241279    4.722296   -0.106256
     15          1           0        0.734176    3.851631    0.302678
     16          1           0        4.570313    0.696890    0.547327
     17          1           0        3.504544   -0.726800    0.677026
     18          1           0        2.966644    0.722558   -0.216256
     19          1           0       -0.770240    0.675905    0.503781
     20          1           0        0.626615    1.325391   -0.396598
     21          1           0        0.801919   -0.164329    0.575800
     22         11           0        4.423955    2.978094    2.544579
 ---------------------------------------------------------------------
                    Distance matrix (angstroms):
                    1          2          3          4          5
     1  B    0.000000
     2  O    1.476193   0.000000
     3  O    1.469569   2.368992   0.000000
     4  O    1.475634   2.376570   2.360656   0.000000
     5  O    1.466411   2.376093   2.455079   2.473042   0.000000
     6  C    2.459916   1.401175   3.675314   2.876582   2.934342
     7  C    2.449599   2.937166   1.399766   3.670470   2.923605
     8  C    2.505070   3.666283   2.771576   1.403366   3.296894
     9  C    2.453179   3.681410   3.069611   2.973932   1.397607
    10  H    3.382416   2.040977   4.407135   3.894069   3.849926
    11  H    2.816534   2.076730   4.052562   2.634673   3.479794
    12  H    2.706504   2.074612   4.067077   3.206300   2.592942
    13  H    2.748294   2.641939   2.077138   4.067524   3.265329
    14  H    3.376003   3.887933   2.039450   4.396359   3.937966
    15  H    2.752642   3.415584   2.072750   4.052241   2.636288
    16  H    3.141666   4.088384   3.065668   2.071431   4.195758
    17  H    3.311414   4.422464   3.811008   2.052551   3.828028
    18  H    2.609878   3.993980   2.514719   2.086108   3.126577
    19  H    3.375831   4.409469   4.009792   3.994723   2.037628
    20  H    2.740158   4.097942   2.789552   3.297107   2.079615
    21  H    2.791860   4.055648   3.564059   2.732142   2.078509
    22  Na   2.681154   2.406836   2.545294   2.649290   4.134205
                    6          7          8          9         10
     6  C    0.000000
     7  C    4.286739   0.000000
     8  C    4.279933   4.128212   0.000000
     9  C    4.207894   3.574974   3.237693   0.000000
    10  H    1.099620   4.808587   5.289716   5.186896   0.000000
    11  H    1.103281   4.931535   3.969366   4.564362   1.787192
    12  H    1.102309   4.587045   4.549608   3.776425   1.787406
    13  H    3.937704   1.103266   4.797580   4.222600   4.223449
    14  H    5.274813   1.099651   4.598034   4.391498   5.754921
    15  H    4.613662   1.102719   4.471565   3.061826   5.191825
    16  H    4.787780   4.423909   1.103555   4.253978   5.692424
    17  H    4.763124   5.138347   1.101160   3.547729   5.811401
    18  H    4.803622   3.696831   1.098956   2.756270   5.815838
    19  H    4.781449   4.254900   4.305574   1.099701   5.682529
    20  H    4.900194   3.174293   3.227264   1.104939   5.849928
    21  H    4.386020   4.370779   2.774030   1.104004   5.448418
    22  Na   3.307559   3.462456   3.335239   5.049534   3.728372
                   11         12         13         14         15
    11  H    0.000000
    12  H    1.785752   0.000000
    13  H    4.715720   4.327472   0.000000
    14  H    5.847650   5.652951   1.786992   0.000000
    15  H    5.340106   4.654048   1.785782   1.787916   0.000000
    16  H    4.390341   5.259281   5.057989   4.696325   4.972745
    17  H    4.294962   4.891676   5.801965   5.648187   5.364430
    18  H    4.709128   4.957980   4.555288   4.066468   3.878699
    19  H    5.239110   4.138925   4.815825   5.080814   3.519793
    20  H    5.264555   4.639197   4.040479   3.772321   2.623441
    21  H    4.480300   3.967976   5.035968   5.139656   4.025807
    22  Na   3.231173   4.243108   3.401120   3.851395   4.404958
                   16         17         18         19         20
    16  H    0.000000
    17  H    1.783138   0.000000
    18  H    1.776365   1.785477   0.000000
    19  H    5.340772   4.502374   3.805907   0.000000
    20  H    4.103506   3.694135   2.423152   1.784297   0.000000
    21  H    3.865657   2.762391   2.469809   1.784058   1.787611
    22  Na   3.035512   4.249625   3.851417   6.036936   5.079542
                   21         22
    21  H    0.000000
    22  Na   5.183634   0.000000
 Stoichiometry    C4H12BNaO4
 Framework group  C1[X(C4H12BNaO4)]
 Deg. of freedom    60
 Full point group                 C1      NOp   1
 Largest Abelian subgroup         C1      NOp   1
 Largest concise Abelian subgroup C1      NOp   1
                         Standard orientation:                         
 ---------------------------------------------------------------------
 Center     Atomic      Atomic             Coordinates (Angstroms)
 Number     Number       Type             X           Y           Z
 ---------------------------------------------------------------------
      1          5           0        0.152521    0.204385    0.038982
      2          8           0       -1.006637    1.056785    0.369000
      3          8           0        0.087077   -0.971727    0.917680
      4          8           0       -0.044630   -0.288133   -1.337991
      5          8           0        1.364723    1.007783    0.227340
      6          6           0       -1.243522    2.170458   -0.447647
      7          6           0        0.277660   -0.758504    2.287920
      8          6           0        0.545967   -1.486828   -1.766669
      9          6           0        2.585286    0.448679   -0.161164
     10          1           0       -2.049873    2.771188   -0.002578
     11          1           0       -1.552686    1.868643   -1.462809
     12          1           0       -0.344369    2.801887   -0.536560
     13          1           0       -0.476625   -0.067098    2.700484
     14          1           0        0.189724   -1.721483    2.811534
     15          1           0        1.276229   -0.337851    2.492611
     16          1           0       -0.204547   -2.293141   -1.833164
     17          1           0        0.980835   -1.344423   -2.768250
     18          1           0        1.339431   -1.828750   -1.087546
     19          1           0        3.393982    1.145089    0.104105
     20          1           0        2.779133   -0.511872    0.349380
     21          1           0        2.628040    0.271969   -1.250095
     22         11           0       -2.265317   -0.950598   -0.054081
 ---------------------------------------------------------------------
 Rotational constants (GHZ):           1.3183370           1.0261756           1.0037695
 Basis read from rwf:  (5D, 7F)
 There are   325 symmetry adapted cartesian basis functions of A   symmetry.
 There are   306 symmetry adapted basis functions of A   symmetry.
   306 basis functions,   457 primitive gaussians,   325 cartesian basis functions
    42 alpha electrons       42 beta electrons
       nuclear repulsion energy       649.0878928166 Hartrees.
 NAtoms=   22 NActive=   22 NUniq=   22 SFac= 1.00D+00 NAtFMM=   60 NAOKFM=F Big=F
 Integral buffers will be    131072 words long.
 Raffenetti 2 integral format.
 Two-electron integral symmetry is turned on.
 Nuclear repulsion after empirical dispersion term =      649.0702121025 Hartrees.
 ------------------------------------------------------------------------------
 Polarizable Continuum Model (PCM)
 =================================
 Model                : C-PCM.
 Atomic radii         : UFF (Universal Force Field).
 Polarization charges : Total charges.
 Charge compensation  : None.
 Solution method      : On-the-fly selection.
 Cavity type          : Scaled VdW (van der Waals Surface) (Alpha=1.100).
 Cavity algorithm     : GePol (No added spheres)
                        Default sphere list used, NSphG=   22.
                        Lebedev-Laikov grids with approx.  5.0 points / Ang**2.
                        Smoothing algorithm: York/Karplus (Gamma=1.0000).
                        Polarization charges: spherical gaussians, with
                                              point-specific exponents (IZeta= 3).
                        Self-potential: point-specific (ISelfS= 7).
                        Self-field    : sphere-specific E.n sum rule (ISelfD= 2).
 1st derivatives      : Analytical E(r).r(x)/FMM algorithm (CHGder, D1EAlg=3).
                        Cavity 1st derivative terms included.
 Solvent              : Water, Eps=  78.355300 Eps(inf)=   1.777849
 ------------------------------------------------------------------------------
 One-electron integrals computed using PRISM.
 NBasis=   306 RedAO= T EigKep=  2.49D-05  NBF=   306
 NBsUse=   306 1.00D-06 EigRej= -1.00D+00 NBFU=   306
 Initial guess from the checkpoint file:  "c1.chk"
 B after Tr=    -0.000000   -0.000000   -0.000000
         Rot=    0.997662    0.065736   -0.017052   -0.007618 Ang=   7.84 deg.
 ExpMin= 1.99D-02 ExpMax= 4.10D+03 ExpMxC= 6.16D+02 IAcc=3 IRadAn=         5 AccDes= 0.00D+00
 Harris functional with IExCor= 4639 and IRadAn=       5 diagonalized for initial guess.
 HarFok:  IExCor= 4639 AccDes= 0.00D+00 IRadAn=         5 IDoV= 1 UseB2=F ITyADJ=14
 ICtDFT=  3500011 ScaDFX=  1.000000  1.000000  1.000000  1.000000
 FoFCou: FMM=F IPFlag=           0 FMFlag=      100000 FMFlg1=           0
         NFxFlg=           0 DoJE=T BraDBF=F KetDBF=T FulRan=T
         wScrn=  0.000000 ICntrl=       500 IOpCl=  0 I1Cent=   200000004 NGrid=           0
         NMat0=    1 NMatS0=      1 NMatT0=    0 NMatD0=    1 NMtDS0=    0 NMtDT0=    0
 Petite list used in FoFCou.
 Requested convergence on RMS density matrix=1.00D-08 within 128 cycles.
 Requested convergence on MAX density matrix=1.00D-06.
 Requested convergence on             energy=1.00D-06.
 No special actions if energy rises.
 Inv3:  Mode=1 IEnd=     8306688.
 Iteration    1 A*A^-1 deviation from unit magnitude is 3.33D-15 for    609.
 Iteration    1 A*A^-1 deviation from orthogonality  is 1.89D-15 for   1379    627.
 Iteration    1 A^-1*A deviation from unit magnitude is 3.11D-15 for    609.
 Iteration    1 A^-1*A deviation from orthogonality  is 1.67D-15 for   1555    394.
 Error on total polarization charges =  0.01477
 SCF Done:  E(RwB97XD) =  -647.375233590     A.U. after   11 cycles
            NFock= 11  Conv=0.95D-08     -V/T= 2.0093
 D1PCM: C-PCM CHGder 1st derivatives, ID1Alg=3 FixD1E=F DoIter=F DoCFld=F I1PDM=0.
 Calling FoFJK, ICntrl=      2127 FMM=F ISym2X=0 I1Cent= 0 IOpClX= 0 NMat=1 NMatS=1 NMatT=0.
 ***** Axes restored to original set *****
 -------------------------------------------------------------------
 Center     Atomic                   Forces (Hartrees/Bohr)
 Number     Number              X              Y              Z
 -------------------------------------------------------------------
      1        5          -0.002259290    0.000230694    0.002355126
      2        8           0.000375825   -0.002150126    0.001173821
      3        8          -0.000845061    0.002171112    0.000235307
      4        8           0.000256562   -0.000181709   -0.003171885
      5        8           0.003774143   -0.001790867   -0.002526005
      6        6           0.000264454    0.002907830   -0.003225673
      7        6           0.002307520   -0.003194349   -0.000223967
      8        6          -0.001311054    0.000917005    0.004680691
      9        6          -0.000500154    0.003118333    0.004468618
     10        1          -0.000072863   -0.000493639    0.000818980
     11        1           0.000041288   -0.000598260    0.000826879
     12        1          -0.000459848   -0.000251035    0.000880766
     13        1          -0.000460101    0.000822209   -0.000050716
     14        1          -0.000440799    0.000671414   -0.000123697
     15        1          -0.000664609    0.000919721   -0.000269261
     16        1           0.000595109   -0.000335136   -0.000868253
     17        1           0.000452431   -0.000519376   -0.000943110
     18        1           0.000450778   -0.000326069   -0.000915530
     19        1          -0.000234161   -0.000611133   -0.000807086
     20        1           0.000080590   -0.000352834   -0.001052770
     21        1          -0.000337028   -0.000673263   -0.000720890
     22       11          -0.001013731   -0.000280520   -0.000541347
 -------------------------------------------------------------------
 Cartesian Forces:  Max     0.004680691 RMS     0.001555551

 GradGradGradGradGradGradGradGradGradGradGradGradGradGradGradGradGradGrad
 Berny optimization.
 Using GEDIIS/GDIIS optimizer.
 FormGI is forming the generalized inverse of G from B-inverse, IUseBI=4.
 Internal  Forces:  Max     0.003530029 RMS     0.000949754
 Search for a local minimum.
 Step number   2 out of a maximum of   97
 All quantities printed in internal units (Hartrees-Bohrs-Radians)
 Mixed Optimization -- En-DIIS/RFO-DIIS
 Update second derivatives using D2CorX and points    1    2
 DE= -2.18D-03 DEPred=-2.05D-03 R= 1.06D+00
 TightC=F SS=  1.41D+00  RLast= 1.59D-01 DXNew= 5.0454D-01 4.7587D-01
 Trust test= 1.06D+00 RLast= 1.59D-01 DXMaxT set to 4.76D-01
 ITU=  1  0
 Use linear search instead of GDIIS.
     Eigenvalues ---    0.01066   0.01105   0.01124   0.01180   0.01370
     Eigenvalues ---    0.01410   0.01434   0.01439   0.03608   0.06905
     Eigenvalues ---    0.07160   0.09966   0.09968   0.10046   0.10067
     Eigenvalues ---    0.10243   0.10324   0.10329   0.10340   0.10383
     Eigenvalues ---    0.10851   0.14285   0.15904   0.16000   0.16000
     Eigenvalues ---    0.16000   0.16000   0.16000   0.16000   0.16000
     Eigenvalues ---    0.16000   0.16000   0.16000   0.16938   0.20923
     Eigenvalues ---    0.21222   0.23476   0.25000   0.25000   0.25113
     Eigenvalues ---    0.32691   0.32911   0.32945   0.32974   0.33006
     Eigenvalues ---    0.33029   0.33078   0.33132   0.33213   0.33295
     Eigenvalues ---    0.33327   0.33430   0.33669   0.34060   0.34381
     Eigenvalues ---    0.35640   0.41763   0.42097   0.42386   0.43209
 RFO step:  Lambda=-5.33075125D-04 EMin= 1.06643283D-02
 Quartic linear search produced a step of  0.07952.
 Iteration  1 RMS(Cart)=  0.03245000 RMS(Int)=  0.00057527
 Iteration  2 RMS(Cart)=  0.00069069 RMS(Int)=  0.00000883
 Iteration  3 RMS(Cart)=  0.00000032 RMS(Int)=  0.00000883
 Variable       Old X    -DE/DX   Delta X   Delta X   Delta X     New X
                                 (Linear)    (Quad)   (Total)
    R1        2.78960   0.00018  -0.00126  -0.00014  -0.00140   2.78820
    R2        2.77708   0.00115  -0.00132   0.00282   0.00150   2.77858
    R3        2.78855   0.00062  -0.00131   0.00122  -0.00009   2.78846
    R4        2.77112  -0.00249  -0.00257  -0.00930  -0.01186   2.75925
    R5        5.06665  -0.00115  -0.00446  -0.03429  -0.03875   5.02790
    R6        2.64784  -0.00140  -0.00299  -0.00526  -0.00825   2.63958
    R7        2.64517  -0.00093  -0.00296  -0.00404  -0.00700   2.63818
    R8        2.65198  -0.00150  -0.00315  -0.00566  -0.00881   2.64317
    R9        2.64109  -0.00211  -0.00328  -0.00720  -0.01048   2.63061
   R10        2.07798   0.00037  -0.00037   0.00097   0.00060   2.07858
   R11        2.08490   0.00056  -0.00031   0.00166   0.00135   2.08625
   R12        2.08306   0.00045  -0.00056   0.00117   0.00061   2.08367
   R13        2.08487   0.00044  -0.00050   0.00115   0.00065   2.08552
   R14        2.07804   0.00026  -0.00054   0.00054   0.00001   2.07805
   R15        2.08384   0.00050  -0.00054   0.00133   0.00080   2.08463
   R16        2.08542   0.00057  -0.00037   0.00164   0.00127   2.08669
   R17        2.08089   0.00050  -0.00043   0.00137   0.00094   2.08183
   R18        2.07673   0.00040  -0.00068   0.00092   0.00025   2.07697
   R19        2.07813   0.00034  -0.00084   0.00064  -0.00020   2.07793
   R20        2.08803   0.00075  -0.00040   0.00223   0.00184   2.08987
   R21        2.08627   0.00044  -0.00044   0.00120   0.00076   2.08702
    A1        1.86866  -0.00024   0.00018  -0.00117  -0.00099   1.86767
    A2        1.87175  -0.00001  -0.00051  -0.00050  -0.00102   1.87073
    A3        1.87973   0.00024   0.00091   0.00287   0.00378   1.88351
    A4        1.10222   0.00000  -0.00014   0.00073   0.00060   1.10282
    A5        1.85968   0.00001   0.00003  -0.00022  -0.00019   1.85949
    A6        1.98065   0.00004  -0.00085  -0.00127  -0.00212   1.97853
    A7        1.19806  -0.00031  -0.00032  -0.00316  -0.00348   1.19459
    A8        1.99672  -0.00006   0.00023   0.00019   0.00042   1.99714
    A9        1.26961   0.00008   0.00019   0.00062   0.00081   1.27043
   A10        2.05038   0.00236  -0.00015   0.01006   0.00991   2.06029
   A11        2.04580   0.00217  -0.00052   0.00906   0.00854   2.05434
   A12        2.11053   0.00330   0.00063   0.01456   0.01519   2.12572
   A13        2.05675   0.00353   0.00032   0.01537   0.01569   2.07244
   A14        1.89894   0.00078   0.00021   0.00483   0.00504   1.90398
   A15        1.94575   0.00090  -0.00059   0.00604   0.00543   1.95118
   A16        1.94378   0.00088  -0.00092   0.00562   0.00468   1.94846
   A17        1.89271  -0.00099   0.00027  -0.00694  -0.00669   1.88602
   A18        1.89427  -0.00101   0.00044  -0.00710  -0.00667   1.88760
   A19        1.88711  -0.00066   0.00065  -0.00319  -0.00256   1.88454
   A20        1.94812   0.00081  -0.00067   0.00517   0.00447   1.95260
   A21        1.89847   0.00066   0.00018   0.00425   0.00441   1.90288
   A22        1.94240   0.00120  -0.00108   0.00769   0.00659   1.94900
   A23        1.89238  -0.00087   0.00068  -0.00589  -0.00522   1.88716
   A24        1.88666  -0.00094   0.00048  -0.00556  -0.00510   1.88155
   A25        1.89450  -0.00097   0.00050  -0.00636  -0.00587   1.88863
   A26        1.93509   0.00088  -0.00057   0.00542   0.00483   1.93992
   A27        1.91089   0.00111  -0.00041   0.00732   0.00689   1.91778
   A28        1.96151   0.00097  -0.00046   0.00637   0.00589   1.96740
   A29        1.88416  -0.00105   0.00063  -0.00689  -0.00628   1.87788
   A30        1.87647  -0.00105   0.00059  -0.00688  -0.00631   1.87017
   A31        1.89356  -0.00101   0.00030  -0.00634  -0.00605   1.88750
   A32        1.89846   0.00106  -0.00042   0.00694   0.00650   1.90496
   A33        1.95254   0.00076  -0.00052   0.00497   0.00443   1.95697
   A34        1.95200   0.00088  -0.00012   0.00562   0.00548   1.95748
   A35        1.88604  -0.00080   0.00033  -0.00485  -0.00453   1.88151
   A36        1.88684  -0.00108   0.00059  -0.00718  -0.00660   1.88025
   A37        1.88579  -0.00094   0.00021  -0.00633  -0.00614   1.87965
   A38        2.98195   0.00024   0.00078   0.00360   0.00438   2.98633
   A39        3.19809   0.00018   0.00107   0.00328   0.00435   3.20243
    D1       -3.01793  -0.00038  -0.00192  -0.04300  -0.04492  -3.06285
    D2       -1.02762  -0.00049  -0.00204  -0.04404  -0.04609  -1.07371
    D3        1.12933  -0.00043  -0.00153  -0.04243  -0.04396   1.08537
    D4       -2.06875  -0.00060  -0.00260  -0.04571  -0.04831  -2.11707
    D5       -1.16689  -0.00030  -0.00224  -0.01961  -0.02185  -1.18874
    D6        3.11785  -0.00018  -0.00175  -0.01839  -0.02014   3.09771
    D7        0.90473  -0.00014  -0.00148  -0.01759  -0.01907   0.88565
    D8       -2.05962  -0.00025  -0.00171  -0.01919  -0.02090  -2.08052
    D9       -2.69696   0.00028   0.00007   0.01560   0.01567  -2.68129
   D10       -0.70061   0.00001   0.00005   0.01393   0.01398  -0.68664
   D11        1.50288   0.00002  -0.00087   0.01223   0.01136   1.51425
   D12       -1.75917   0.00033   0.00034   0.01718   0.01751  -1.74165
   D13       -3.02761  -0.00027  -0.00361  -0.01766  -0.02127  -3.04888
   D14        1.19033  -0.00016  -0.00394  -0.01735  -0.02129   1.16904
   D15       -0.94876  -0.00015  -0.00347  -0.01617  -0.01965  -0.96840
   D16       -3.01423  -0.00023  -0.00052  -0.01796  -0.01847  -3.03270
   D17        1.18245  -0.00006  -0.00062  -0.01619  -0.01681   1.16564
   D18       -0.92699  -0.00045  -0.00040  -0.02018  -0.02059  -0.94757
   D19        1.04350   0.00010  -0.00042  -0.00035  -0.00076   1.04274
   D20        3.13076  -0.00006   0.00013  -0.00172  -0.00159   3.12917
   D21       -1.06605  -0.00010   0.00021  -0.00216  -0.00195  -1.06800
   D22        1.83312   0.00004  -0.00011   0.00312   0.00301   1.83612
   D23       -2.37305  -0.00002   0.00005   0.00258   0.00263  -2.37042
   D24       -0.26750   0.00010  -0.00015   0.00378   0.00363  -0.26387
   D25       -3.07844   0.00009  -0.00053   0.01244   0.01192  -3.06653
   D26       -0.99632   0.00025  -0.00072   0.01400   0.01329  -0.98304
   D27        1.12197   0.00020  -0.00091   0.01338   0.01246   1.13443
         Item               Value     Threshold  Converged?
 Maximum Force            0.003530     0.000450     NO 
 RMS     Force            0.000950     0.000300     NO 
 Maximum Displacement     0.104180     0.001800     NO 
 RMS     Displacement     0.032560     0.001200     NO 
 Predicted change in Energy=-2.882144D-04
 GradGradGradGradGradGradGradGradGradGradGradGradGradGradGradGradGradGrad

                          Input orientation:                          
 ---------------------------------------------------------------------
 Center     Atomic      Atomic             Coordinates (Angstroms)
 Number     Number       Type             X           Y           Z
 ---------------------------------------------------------------------
      1          5           0        2.039184    1.978364    1.868640
      2          8           0        2.151122    2.630666    3.187326
      3          8           0        2.512681    2.946417    0.868320
      4          8           0        2.997763    0.856632    1.854340
      5          8           0        0.645995    1.584544    1.679111
      6          6           0        1.848729    1.874242    4.321986
      7          6           0        1.737188    4.086698    0.650695
      8          6           0        3.551139    0.375286    0.663350
      9          6           0        0.307120    0.845204    0.549346
     10          1           0        1.870924    2.527786    5.206436
     11          1           0        2.578652    1.060988    4.478940
     12          1           0        0.845243    1.422387    4.253861
     13          1           0        1.623245    4.687922    1.569117
     14          1           0        2.225974    4.712909   -0.109694
     15          1           0        0.727458    3.829555    0.288425
     16          1           0        4.601909    0.696559    0.553848
     17          1           0        3.537896   -0.726291    0.662434
     18          1           0        3.010778    0.724849   -0.227608
     19          1           0       -0.782938    0.702741    0.525171
     20          1           0        0.602256    1.355486   -0.386360
     21          1           0        0.777015   -0.154252    0.549275
     22         11           0        4.421019    2.969931    2.518809
 ---------------------------------------------------------------------
                    Distance matrix (angstroms):
                    1          2          3          4          5
     1  B    0.000000
     2  O    1.475452   0.000000
     3  O    1.470362   2.368166   0.000000
     4  O    1.475588   2.375047   2.361089   0.000000
     5  O    1.460134   2.373707   2.448795   2.468071   0.000000
     6  C    2.462929   1.396808   3.676710   2.906043   2.918095
     7  C    2.453500   2.953958   1.396062   3.670304   2.917039
     8  C    2.511691   3.662955   2.780490   1.398705   3.306651
     9  C    2.454513   3.680646   3.062898   2.990434   1.392060
    10  H    3.386894   2.041054   4.405264   3.911402   3.851256
    11  H    2.818913   2.077243   4.073791   2.665697   3.442138
    12  H    2.724680   2.074308   4.070000   3.272785   2.587533
    13  H    2.757612   2.670123   2.077270   4.080372   3.255468
    14  H    3.380301   3.900215   2.039413   4.395902   3.934822
    15  H    2.764889   3.444965   2.074423   4.055199   2.642105
    16  H    3.152659   4.084400   3.086361   2.071276   4.207610
    17  H    3.319071   4.423503   3.818670   2.053784   3.838838
    18  H    2.628603   4.004113   2.526762   2.086155   3.157032
    19  H    3.375870   4.405981   4.001617   4.010495   2.037402
    20  H    2.745499   4.098329   2.784782   3.317837   2.078594
    21  H    2.807463   4.074708   3.567699   2.767093   2.077765
    22  Na   2.660650   2.390491   2.523176   2.633098   4.107942
                    6          7          8          9         10
     6  C    0.000000
     7  C    4.287864   0.000000
     8  C    4.304728   4.131000   0.000000
     9  C    4.203366   3.544383   3.279860   0.000000
    10  H    1.099938   4.816935   5.300567   5.192788   0.000000
    11  H    1.103995   4.951610   3.996829   4.544021   1.783712
    12  H    1.102632   4.569127   4.616282   3.787631   1.783627
    13  H    3.942832   1.103609   4.809992   4.187911   4.237643
    14  H    5.276375   1.099656   4.600939   4.367549   5.758650
    15  H    4.620618   1.103140   4.477245   3.025081   5.214302
    16  H    4.813086   4.439487   1.104229   4.297363   5.697213
    17  H    4.796705   5.138828   1.101657   3.594481   5.832304
    18  H    4.834281   3.700740   1.099087   2.815654   5.837695
    19  H    4.765909   4.221133   4.348626   1.099594   5.682254
    20  H    4.898094   3.134178   3.280030   1.105911   5.853475
    21  H    4.415507   4.349469   2.826516   1.104406   5.484442
    22  Na   3.326959   3.455425   3.306297   5.031641   3.731195
                   11         12         13         14         15
    11  H    0.000000
    12  H    1.784931   0.000000
    13  H    4.747054   4.298471   0.000000
    14  H    5.875072   5.636893   1.783904   0.000000
    15  H    5.352785   4.640368   1.783087   1.784479   0.000000
    16  H    4.430882   5.322542   5.082734   4.713430   4.989738
    17  H    4.322063   4.976499   5.813920   5.648205   5.366020
    18  H    4.738282   5.025899   4.567211   4.066258   3.888321
    19  H    5.202011   4.131827   4.770871   5.053519   3.480562
    20  H    5.259659   4.647060   3.996428   3.739692   2.567494
    21  H    4.490542   4.026711   5.020242   5.120838   3.992645
    22  Na   3.298559   4.265145   3.417740   3.842554   4.399541
                   16         17         18         19         20
    16  H    0.000000
    17  H    1.780005   0.000000
    18  H    1.772899   1.782087   0.000000
    19  H    5.384927   4.553084   3.867744   0.000000
    20  H    4.161178   3.748566   2.494772   1.782057   0.000000
    21  H    3.918381   2.821790   2.523106   1.780020   1.784731
    22  Na   3.010317   4.229431   3.817326   6.016303   5.062548
                   21         22
    21  H    0.000000
[...]
                   21         22
    21  H    0.000000
    22  Na   5.553266   0.000000
 Stoichiometry    C4H12BNaO4
 Framework group  C1[X(C4H12BNaO4)]
 Deg. of freedom    60
 Full point group                 C1      NOp   1
 Largest Abelian subgroup         C1      NOp   1
 Largest concise Abelian subgroup C1      NOp   1
                         Standard orientation:                         
 ---------------------------------------------------------------------
 Center     Atomic      Atomic             Coordinates (Angstroms)
 Number     Number       Type             X           Y           Z
 ---------------------------------------------------------------------
      1          5           0        0.095433    0.081209   -0.179416
      2          8           0       -1.026979    0.829420   -0.761885
      3          8           0        0.152930    0.432351    1.250687
      4          8           0       -0.307007   -1.344439   -0.224560
      5          8           0        1.319079    0.395519   -0.905838
      6          6           0       -1.283455    0.687521   -2.126002
      7          6           0        0.454937    1.752334    1.590151
      8          6           0        0.543804   -2.322000    0.291145
      9          6           0        2.572943    0.087180   -0.377273
     10          1           0       -2.195470    1.247697   -2.382366
     11          1           0       -1.441275   -0.368553   -2.408921
     12          1           0       -0.456645    1.081703   -2.742043
     13          1           0       -0.283680    2.463444    1.180517
     14          1           0        0.454231    1.852030    2.685943
     15          1           0        1.451182    2.057640    1.223218
     16          1           0       -0.006823   -3.270564    0.382199
     17          1           0        1.414344   -2.503191   -0.363891
     18          1           0        0.924736   -2.053382    1.292352
     19          1           0        3.263580    0.933059   -0.529633
     20          1           0        2.529693   -0.119725    0.705283
     21          1           0        3.016549   -0.796838   -0.868662
     22         11           0       -2.180104   -0.423853    1.053430
 ---------------------------------------------------------------------
 Rotational constants (GHZ):           1.2995991           1.0256808           1.0140263

 **********************************************************************

            Population analysis using the SCF density.

 **********************************************************************

 Orbital symmetries:
       Occupied  (A) (A) (A) (A) (A) (A) (A) (A) (A) (A) (A) (A)
                 (A) (A) (A) (A) (A) (A) (A) (A) (A) (A) (A) (A)
                 (A) (A) (A) (A) (A) (A) (A) (A) (A) (A) (A) (A)
                 (A) (A) (A) (A) (A) (A)
       Virtual   (A) (A) (A) (A) (A) (A) (A) (A) (A) (A) (A) (A)
                 (A) (A) (A) (A) (A) (A) (A) (A) (A) (A) (A) (A)
                 (A) (A) (A) (A) (A) (A) (A) (A) (A) (A) (A) (A)
                 (A) (A) (A) (A) (A) (A) (A) (A) (A) (A) (A) (A)
                 (A) (A) (A) (A) (A) (A) (A) (A) (A) (A) (A) (A)
                 (A) (A) (A) (A) (A) (A) (A) (A) (A) (A) (A) (A)
                 (A) (A) (A) (A) (A) (A) (A) (A) (A) (A) (A) (A)
                 (A) (A) (A) (A) (A) (A) (A) (A) (A) (A) (A) (A)
                 (A) (A) (A) (A) (A) (A) (A) (A) (A) (A) (A) (A)
                 (A) (A) (A) (A) (A) (A) (A) (A) (A) (A) (A) (A)
                 (A) (A) (A) (A) (A) (A) (A) (A) (A) (A) (A) (A)
                 (A) (A) (A) (A) (A) (A) (A) (A) (A) (A) (A) (A)
                 (A) (A) (A) (A) (A) (A) (A) (A) (A) (A) (A) (A)
                 (A) (A) (A) (A) (A) (A) (A) (A) (A) (A) (A) (A)
                 (A) (A) (A) (A) (A) (A) (A) (A) (A) (A) (A) (A)
                 (A) (A) (A) (A) (A) (A) (A) (A) (A) (A) (A) (A)
                 (A) (A) (A) (A) (A) (A) (A) (A) (A) (A) (A) (A)
                 (A) (A) (A) (A) (A) (A) (A) (A) (A) (A) (A) (A)
                 (A) (A) (A) (A) (A) (A) (A) (A) (A) (A) (A) (A)
                 (A) (A) (A) (A) (A) (A) (A) (A) (A) (A) (A) (A)
                 (A) (A) (A) (A) (A) (A) (A) (A) (A) (A) (A) (A)
                 (A) (A) (A) (A) (A) (A) (A) (A) (A) (A) (A) (A)
 The electronic state is 1-A.
 Alpha  occ. eigenvalues --  -38.57040 -19.22118 -19.21900 -19.21841 -19.21662
 Alpha  occ. eigenvalues --  -10.32291 -10.32285 -10.32281 -10.32170  -6.88246
 Alpha  occ. eigenvalues --   -2.28461  -1.20421  -1.20366  -1.20363  -1.10949
 Alpha  occ. eigenvalues --   -1.05919  -1.05686  -1.05577  -0.76906  -0.74404
 Alpha  occ. eigenvalues --   -0.73803  -0.73691  -0.60590  -0.56618  -0.56420
 Alpha  occ. eigenvalues --   -0.56209  -0.52717  -0.51980  -0.50185  -0.49346
 Alpha  occ. eigenvalues --   -0.49253  -0.48696  -0.48532  -0.48247  -0.40236
 Alpha  occ. eigenvalues --   -0.38623  -0.37427  -0.36070  -0.34163  -0.33937
 Alpha  occ. eigenvalues --   -0.33280  -0.31535
 Alpha virt. eigenvalues --    0.03919   0.05140   0.05156   0.06769   0.10315
 Alpha virt. eigenvalues --    0.11366   0.12082   0.13756   0.13955   0.14466
 Alpha virt. eigenvalues --    0.15213   0.16156   0.16311   0.16987   0.17178
 Alpha virt. eigenvalues --    0.17748   0.18289   0.19383   0.19419   0.20778
 Alpha virt. eigenvalues --    0.21482   0.22109   0.22740   0.22998   0.23860
 Alpha virt. eigenvalues --    0.24407   0.24923   0.25161   0.27054   0.27467
 Alpha virt. eigenvalues --    0.28223   0.28848   0.29385   0.29960   0.31242
 Alpha virt. eigenvalues --    0.32010   0.32393   0.33003   0.33247   0.33404
 Alpha virt. eigenvalues --    0.34151   0.34754   0.36305   0.37188   0.37607
 Alpha virt. eigenvalues --    0.37915   0.38114   0.38862   0.39198   0.40258
 Alpha virt. eigenvalues --    0.40649   0.40714   0.42169   0.42460   0.43588
 Alpha virt. eigenvalues --    0.43648   0.44155   0.44249   0.44363   0.44866
 Alpha virt. eigenvalues --    0.45289   0.46031   0.46251   0.47222   0.47466
 Alpha virt. eigenvalues --    0.47653   0.48239   0.48459   0.49036   0.49581
 Alpha virt. eigenvalues --    0.50015   0.50454   0.51220   0.52122   0.52480
 Alpha virt. eigenvalues --    0.53144   0.53576   0.54057   0.54481   0.54793
 Alpha virt. eigenvalues --    0.55186   0.55612   0.56484   0.56845   0.57387
 Alpha virt. eigenvalues --    0.57566   0.58313   0.59505   0.59659   0.60109
 Alpha virt. eigenvalues --    0.61018   0.61438   0.61799   0.62052   0.62379
 Alpha virt. eigenvalues --    0.63230   0.63783   0.64354   0.64611   0.65649
 Alpha virt. eigenvalues --    0.66045   0.66439   0.66847   0.67430   0.68041
 Alpha virt. eigenvalues --    0.68985   0.69662   0.70877   0.72030   0.72439
 Alpha virt. eigenvalues --    0.74240   0.74348   0.75971   0.76944   0.77997
 Alpha virt. eigenvalues --    0.78498   0.79093   0.79887   0.80759   0.82922
 Alpha virt. eigenvalues --    0.83733   0.84348   0.85706   0.87024   0.89151
 Alpha virt. eigenvalues --    0.89907   0.91113   0.92152   0.92918   0.95601
 Alpha virt. eigenvalues --    0.95833   0.98193   0.98871   1.00009   1.01863
 Alpha virt. eigenvalues --    1.04151   1.04786   1.06580   1.08296   1.10059
 Alpha virt. eigenvalues --    1.11047   1.12003   1.12433   1.13840   1.14525
 Alpha virt. eigenvalues --    1.15539   1.17924   1.18235   1.18620   1.19559
 Alpha virt. eigenvalues --    1.22907   1.24450   1.24679   1.26884   1.30989
 Alpha virt. eigenvalues --    1.32126   1.34550   1.36144   1.39326   1.39678
 Alpha virt. eigenvalues --    1.41445   1.41924   1.44698   1.46748   1.49955
 Alpha virt. eigenvalues --    1.54563   1.56186   1.58234   1.60961   1.61646
 Alpha virt. eigenvalues --    1.62883   1.66053   1.67939   1.69559   1.73339
 Alpha virt. eigenvalues --    1.76981   1.77413   1.77631   1.80641   1.81461
 Alpha virt. eigenvalues --    1.81871   1.83459   1.84773   1.86118   1.86933
 Alpha virt. eigenvalues --    1.89300   1.90093   1.90681   1.93676   1.96650
 Alpha virt. eigenvalues --    1.96993   1.98329   2.01021   2.01859   2.04634
 Alpha virt. eigenvalues --    2.06899   2.07170   2.09657   2.10355   2.11054
 Alpha virt. eigenvalues --    2.12147   2.12646   2.14121   2.14912   2.17162
 Alpha virt. eigenvalues --    2.17715   2.19993   2.21758   2.23610   2.24570
 Alpha virt. eigenvalues --    2.26094   2.28432   2.30016   2.30958   2.33478
 Alpha virt. eigenvalues --    2.35455   2.38027   2.39221   2.40770   2.42774
 Alpha virt. eigenvalues --    2.48123   2.48830   2.51899   2.54168   2.59642
 Alpha virt. eigenvalues --    2.60370   2.60768   2.61733   2.63304   2.65161
 Alpha virt. eigenvalues --    2.67392   2.68090   2.87619   2.88633   2.89125
 Alpha virt. eigenvalues --    2.89956   3.03130   3.06885   3.07173   3.10159
 Alpha virt. eigenvalues --    3.12218   3.12645   3.15252   3.17557   3.18114
 Alpha virt. eigenvalues --    3.21082   3.24389   3.26287   3.26765   3.27180
 Alpha virt. eigenvalues --    3.29247   3.29794   3.31932   3.34744   3.37298
 Alpha virt. eigenvalues --    3.37514   3.44667   3.56389   3.60489   3.62042
 Alpha virt. eigenvalues --    3.64482   3.71628   3.75553   3.76111
          Condensed to atoms (all electrons):
               1          2          3          4          5          6
     1  B    7.591021  -0.599624  -1.044785  -1.056121  -0.968602   0.004767
     2  O   -0.599624   9.710793  -0.041203  -0.100191  -0.246140   0.197038
     3  O   -1.044785  -0.041203   9.897737   0.041349   0.180954  -0.010491
     4  O   -1.056121  -0.100191   0.041349  10.372308   0.366640   0.005892
     5  O   -0.968602  -0.246140   0.180954   0.366640   9.685630   0.042511
     6  C    0.004767   0.197038  -0.010491   0.005892   0.042511   3.976532
     7  C    0.104266  -0.006332   0.093395   0.001931   0.003278  -0.002171
     8  C    0.134155   0.041233   0.013632  -0.074318  -0.053298  -0.001571
     9  C    0.105870   0.027214  -0.010199  -0.106891   0.069870  -0.000725
    10  H   -0.061089   0.063640  -0.003326  -0.004645   0.016299   0.341657
    11  H    0.075292   0.032665   0.008701  -0.009287  -0.017599   0.292561
    12  H    0.141061  -0.107498   0.001222   0.011534   0.003295   0.292893
    13  H    0.059463  -0.006542   0.026177   0.007665  -0.010504  -0.001016
    14  H    0.018305   0.021099   0.010125  -0.009945  -0.006418   0.000519
    15  H    0.076954  -0.016673   0.030354   0.006923   0.016044  -0.003434
    16  H    0.001781   0.009024   0.033528  -0.159792   0.001342  -0.000885
    17  H    0.060062  -0.004822  -0.009043   0.062652  -0.016051  -0.000392
    18  H    0.053518   0.006738  -0.039191   0.124386  -0.015569  -0.000241
    19  H    0.024375  -0.010621  -0.012563   0.033998  -0.004770  -0.001070
    20  H    0.062856   0.011988  -0.020106  -0.023460   0.069501  -0.000312
    21  H   -0.040826   0.008570   0.026216  -0.079440   0.021145  -0.000084
    22  Na  -0.167711   0.044612  -0.031332  -0.062055   0.002387   0.013882
               7          8          9         10         11         12
     1  B    0.104266   0.134155   0.105870  -0.061089   0.075292   0.141061
     2  O   -0.006332   0.041233   0.027214   0.063640   0.032665  -0.107498
     3  O    0.093395   0.013632  -0.010199  -0.003326   0.008701   0.001222
     4  O    0.001931  -0.074318  -0.106891  -0.004645  -0.009287   0.011534
     5  O    0.003278  -0.053298   0.069870   0.016299  -0.017599   0.003295
     6  C   -0.002171  -0.001571  -0.000725   0.341657   0.292561   0.292893
     7  C    3.972603   0.000595   0.023057   0.000086  -0.000049  -0.000341
     8  C    0.000595   4.020674   0.034754  -0.000004   0.000652  -0.002706
     9  C    0.023057   0.034754   3.988017   0.000676  -0.001819  -0.002471
    10  H    0.000086  -0.000004   0.000676   0.972985  -0.081292  -0.061804
    11  H   -0.000049   0.000652  -0.001819  -0.081292   0.696281  -0.011767
    12  H   -0.000341  -0.002706  -0.002471  -0.061804  -0.011767   0.743707
    13  H    0.283164  -0.000497  -0.001946   0.000950  -0.000088  -0.000739
    14  H    0.328986   0.000362   0.000141   0.000005  -0.000054   0.000000
    15  H    0.257401  -0.001044  -0.011423  -0.000176  -0.000119   0.000472
    16  H   -0.000098   0.386437   0.013802  -0.000034   0.002177  -0.000182
    17  H   -0.001572   0.228253  -0.013655  -0.000030  -0.001659   0.000511
    18  H    0.000616   0.236539  -0.005434  -0.000050  -0.000434  -0.000194
    19  H    0.000004   0.006017   0.295214   0.000037  -0.000161   0.001148
    20  H   -0.002060  -0.003277   0.266585   0.000034  -0.000085  -0.000351
    21  H    0.000702   0.003023   0.243459  -0.000010   0.000442  -0.001202
    22  Na   0.011307   0.019322   0.003420   0.004258   0.006506  -0.007696
              13         14         15         16         17         18
     1  B    0.059463   0.018305   0.076954   0.001781   0.060062   0.053518
     2  O   -0.006542   0.021099  -0.016673   0.009024  -0.004822   0.006738
     3  O    0.026177   0.010125   0.030354   0.033528  -0.009043  -0.039191
     4  O    0.007665  -0.009945   0.006923  -0.159792   0.062652   0.124386
     5  O   -0.010504  -0.006418   0.016044   0.001342  -0.016051  -0.015569
     6  C   -0.001016   0.000519  -0.003434  -0.000885  -0.000392  -0.000241
     7  C    0.283164   0.328986   0.257401  -0.000098  -0.001572   0.000616
     8  C   -0.000497   0.000362  -0.001044   0.386437   0.228253   0.236539
     9  C   -0.001946   0.000141  -0.011423   0.013802  -0.013655  -0.005434
    10  H    0.000950   0.000005  -0.000176  -0.000034  -0.000030  -0.000050
    11  H   -0.000088  -0.000054  -0.000119   0.002177  -0.001659  -0.000434
    12  H   -0.000739   0.000000   0.000472  -0.000182   0.000511  -0.000194
    13  H    0.736830  -0.097405   0.002353  -0.000095  -0.000073  -0.000298
    14  H   -0.097405   1.029694  -0.091320   0.000050  -0.000171   0.001614
    15  H    0.002353  -0.091320   0.747234  -0.000094   0.000071  -0.001365
    16  H   -0.000095   0.000050  -0.000094   1.327570  -0.204195  -0.162932
    17  H   -0.000073  -0.000171   0.000071  -0.204195   0.863087   0.028266
    18  H   -0.000298   0.001614  -0.001365  -0.162932   0.028266   0.689309
    19  H    0.000930  -0.000691  -0.014060  -0.000922   0.001663   0.000289
    20  H    0.000844  -0.001186   0.004081   0.001935  -0.014736  -0.003153
    21  H    0.000146   0.000232   0.001753   0.004671   0.009348  -0.005197
    22  Na   0.003513   0.005489  -0.006934   0.011040  -0.007521   0.003279
              19         20         21         22
     1  B    0.024375   0.062856  -0.040826  -0.167711
     2  O   -0.010621   0.011988   0.008570   0.044612
     3  O   -0.012563  -0.020106   0.026216  -0.031332
     4  O    0.033998  -0.023460  -0.079440  -0.062055
     5  O   -0.004770   0.069501   0.021145   0.002387
     6  C   -0.001070  -0.000312  -0.000084   0.013882
     7  C    0.000004  -0.002060   0.000702   0.011307
     8  C    0.006017  -0.003277   0.003023   0.019322
     9  C    0.295214   0.266585   0.243459   0.003420
    10  H    0.000037   0.000034  -0.000010   0.004258
    11  H   -0.000161  -0.000085   0.000442   0.006506
    12  H    0.001148  -0.000351  -0.001202  -0.007696
    13  H    0.000930   0.000844   0.000146   0.003513
    14  H   -0.000691  -0.001186   0.000232   0.005489
    15  H   -0.014060   0.004081   0.001753  -0.006934
    16  H   -0.000922   0.001935   0.004671   0.011040
    17  H    0.001663  -0.014736   0.009348  -0.007521
    18  H    0.000289  -0.003153  -0.005197   0.003279
    19  H    1.394359  -0.076921  -0.358506  -0.001282
    20  H   -0.076921   0.582043   0.008704   0.002734
    21  H   -0.358506   0.008704   1.173357   0.001404
    22  Na  -0.001282   0.002734   0.001404  10.088282
 Mulliken charges:
               1
     1  B    0.425010
     2  O   -1.034968
     3  O   -1.141152
     4  O   -1.349134
     5  O   -1.139946
     6  C    0.854139
     7  C    0.931232
     8  C    1.011069
     9  C    1.082486
    10  H   -0.188168
    11  H    0.009135
    12  H    0.001107
    13  H   -0.002832
    14  H   -0.209433
    15  H    0.003004
    16  H   -0.264128
    17  H    0.020008
    18  H    0.089504
    19  H   -0.276465
    20  H    0.134343
    21  H   -0.017907
    22  Na   1.063097
 Sum of Mulliken charges =  -0.00000
 Mulliken charges with hydrogens summed into heavy atoms:
               1
     1  B    0.425010
     2  O   -1.034968
     3  O   -1.141152
     4  O   -1.349134
     5  O   -1.139946
     6  C    0.676213
     7  C    0.721971
     8  C    0.856453
     9  C    0.922457
    22  Na   1.063097
 Electronic spatial extent (au):  <R**2>=           1540.7812
 Charge=             -0.0000 electrons
 Dipole moment (field-independent basis, Debye):
    X=             -7.6193    Y=             -2.2998    Z=              5.5122  Tot=              9.6813
 Quadrupole moment (field-independent basis, Debye-Ang):
   XX=            -41.7334   YY=            -62.7874   ZZ=            -60.3003
   XY=              3.1860   XZ=             -8.3995   YZ=             -1.0989
 Traceless Quadrupole moment (field-independent basis, Debye-Ang):
   XX=             13.2069   YY=             -7.8470   ZZ=             -5.3599
   XY=              3.1860   XZ=             -8.3995   YZ=             -1.0989
 Octapole moment (field-independent basis, Debye-Ang**2):
  XXX=            -82.3269  YYY=            -10.5169  ZZZ=             22.8784  XYY=            -10.7531
  XXY=            -12.9176  XXZ=             30.6932  XZZ=            -28.7849  YZZ=             -2.5113
  YYZ=             11.5934  XYZ=              7.2509
 Hexadecapole moment (field-independent basis, Debye-Ang**3):
 XXXX=           -591.0900 YYYY=           -623.7663 ZZZZ=           -565.5325 XXXY=             39.2368
 XXXZ=            -94.6210 YYYX=             18.8109 YYYZ=             -8.4846 ZZZX=            -46.0066
 ZZZY=             -7.2521 XXYY=           -218.8822 XXZZ=           -189.2196 YYZZ=           -198.2775
 XXYZ=            -13.2065 YYXZ=            -16.9511 ZZXY=              7.2365
 N-N= 6.494538031797D+02 E-N=-2.825884687323D+03  KE= 6.414247356786D+02
 1\1\GINC-C3CPU-C11-U9-2\FOpt\RwB97XD\Gen\C4H12B1Na1O4\BERI9208\16-Feb-
 2023\0\\# opt wb97xd Gen scrf=(cpcm,solvent=water)\\Title Card Require
 d\\0,1\B,2.1365911246,1.9806642441,1.8844824039\O,2.1659274761,2.65215
 52099,3.1910580163\O,2.4212089028,3.0062358703,0.8651703097\O,3.307502
 9564,1.0721848656,1.8745310449\O,0.8489957917,1.3222871636,1.704409812
 8\C,1.9019626543,1.8953521232,4.3331176289\C,1.497971819,4.0401763197,
 0.6996423388\C,3.5796795736,0.3038478773,0.7427031735\C,0.4275117025,0
 .890667652,0.4463622081\H,2.0401700856,2.5260402718,5.2244210257\H,2.5
 811505213,1.0285481289,4.4202844453\H,0.8660114477,1.5142721462,4.3423
 151464\H,1.3654346875,4.6275891204,1.6250674922\H,1.8552132713,4.71983
 62923,-0.0884823729\H,0.503975885,3.6645463753,0.3975970263\H,4.591316
 0955,-0.1211585143,0.8276425466\H,2.8727467528,-0.537329657,0.63130220
 94\H,3.5401568057,0.9030931118,-0.1841312828\H,-0.6332388551,1.1509315
 656,0.2954444113\H,1.0062780023,1.35550412,-0.3694594073\H,0.519587538
 7,-0.2046522699,0.3389616359\Na,4.4341951109,3.1978329232,2.3233265671
 \\Version=ES64L-G16RevA.03\State=1-A\HF=-647.3765111\RMSD=2.632e-09\RM
 SF=4.176e-05\Dipole=3.3912929,1.729503,0.1252038\Quadrupole=6.7910267,
 -2.0867889,-4.7042378,7.2452552,4.7608869,2.6419267\PG=C01 [X(C4H12B1N
 a1O4)]\\@


 WE ARE PERHAPS NOT FAR REMOVED FROM THE TIME WHEN WE SHALL BE ABLE TO SUBMIT
 THE BULK OF CHEMICAL PHENOMENA TO CALCULATION.

            -- JOSEPH LOUIS GAY-LUSSAC
               MEMOIRES DE LA SOCIETE D'ARCUEIL, 2, 207 (1808)
 Job cpu time:       0 days  7 hours 26 minutes 36.4 seconds.
 Elapsed time:       0 days  0 hours 28 minutes 28.2 seconds.
 File lengths (MBytes):  RWF=    192 Int=      0 D2E=      0 Chk=     24 Scr=     16
 Normal termination of Gaussian 16 at Thu Feb 16 10:04:53 2023.
